
                                 *****************
                                 * O   R   C   A *
                                 *****************

                                            #,                                       
                                            ###                                      
                                            ####                                     
                                            #####                                    
                                            ######                                   
                                           ########,                                 
                                     ,,################,,,,,                         
                               ,,#################################,,                 
                          ,,##########################################,,             
                       ,#########################################, ''#####,          
                    ,#############################################,,   '####,        
                  ,##################################################,,,,####,       
                ,###########''''           ''''###############################       
              ,#####''   ,,,,##########,,,,          '''####'''          '####       
            ,##' ,,,,###########################,,,                        '##       
           ' ,,###''''                  '''############,,,                           
         ,,##''                                '''############,,,,        ,,,,,,###''
      ,#''                                            '''#######################'''  
     '                                                          ''''####''''         
             ,#######,   #######,   ,#######,      ##                                
            ,#'     '#,  ##    ##  ,#'     '#,    #''#        ######   ,####,        
            ##       ##  ##   ,#'  ##            #'  '#       #        #'  '#        
            ##       ##  #######   ##           ,######,      #####,   #    #        
            '#,     ,#'  ##    ##  '#,     ,#' ,#      #,         ##   #,  ,#        
             '#######'   ##     ##  '#######'  #'      '#     #####' # '####'        



                  #######################################################
                  #                        -***-                        #
                  #          Department of theory and spectroscopy      #
                  #    Directorship and core code : Frank Neese         #
                  #        Max Planck Institute fuer Kohlenforschung    #
                  #                Kaiser Wilhelm Platz 1               #
                  #                 D-45470 Muelheim/Ruhr               #
                  #                      Germany                        #
                  #                                                     #
                  #                  All rights reserved                #
                  #                        -***-                        #
                  #######################################################


                         Program Version 5.0.1 -  RELEASE  -


 With contributions from (in alphabetic order):
   Daniel Aravena         : Magnetic Suceptibility
   Michael Atanasov       : Ab Initio Ligand Field Theory (pilot matlab implementation)
   Alexander A. Auer      : GIAO ZORA, VPT2 properties, NMR spectrum
   Ute Becker             : Parallelization
   Giovanni Bistoni       : ED, misc. LED, open-shell LED, HFLD
   Martin Brehm           : Molecular dynamics
   Dmytro Bykov           : SCF Hessian
   Vijay G. Chilkuri      : MRCI spin determinant printing, contributions to CSF-ICE
   Dipayan Datta          : RHF DLPNO-CCSD density
   Achintya Kumar Dutta   : EOM-CC, STEOM-CC
   Dmitry Ganyushin       : Spin-Orbit,Spin-Spin,Magnetic field MRCI
   Miquel Garcia          : C-PCM and meta-GGA Hessian, CC/C-PCM, Gaussian charge scheme
   Yang Guo               : DLPNO-NEVPT2, F12-NEVPT2, CIM, IAO-localization
   Andreas Hansen         : Spin unrestricted coupled pair/coupled cluster methods
   Benjamin Helmich-Paris : MC-RPA, TRAH-SCF, COSX integrals
   Lee Huntington         : MR-EOM, pCC
   Robert Izsak           : Overlap fitted RIJCOSX, COSX-SCS-MP3, EOM
   Marcus Kettner         : VPT2
   Christian Kollmar      : KDIIS, OOCD, Brueckner-CCSD(T), CCSD density, CASPT2, CASPT2-K
   Simone Kossmann        : Meta GGA functionals, TD-DFT gradient, OOMP2, MP2 Hessian
   Martin Krupicka        : Initial AUTO-CI
   Lucas Lang             : DCDCAS
   Marvin Lechner         : AUTO-CI (C++ implementation), FIC-MRCC
   Dagmar Lenk            : GEPOL surface, SMD
   Dimitrios Liakos       : Extrapolation schemes; Compound Job, initial MDCI parallelization
   Dimitrios Manganas     : Further ROCIS development; embedding schemes
   Dimitrios Pantazis     : SARC Basis sets
   Anastasios Papadopoulos: AUTO-CI, single reference methods and gradients
   Taras Petrenko         : DFT Hessian,TD-DFT gradient, ASA, ECA, R-Raman, ABS, FL, XAS/XES, NRVS
   Peter Pinski           : DLPNO-MP2, DLPNO-MP2 Gradient
   Christoph Reimann      : Effective Core Potentials
   Marius Retegan         : Local ZFS, SOC
   Christoph Riplinger    : Optimizer, TS searches, QM/MM, DLPNO-CCSD(T), (RO)-DLPNO pert. Triples
   Tobias Risthaus        : Range-separated hybrids, TD-DFT gradient, RPA, STAB
   Michael Roemelt        : Original ROCIS implementation
   Masaaki Saitow         : Open-shell DLPNO-CCSD energy and density
   Barbara Sandhoefer     : DKH picture change effects
   Avijit Sen             : IP-ROCIS
   Kantharuban Sivalingam : CASSCF convergence, NEVPT2, FIC-MRCI
   Bernardo de Souza      : ESD, SOC TD-DFT
   Georgi Stoychev        : AutoAux, RI-MP2 NMR, DLPNO-MP2 response
   Willem Van den Heuvel  : Paramagnetic NMR
   Boris Wezisla          : Elementary symmetry handling
   Frank Wennmohs         : Technical directorship


 We gratefully acknowledge several colleagues who have allowed us to
 interface, adapt or use parts of their codes:
   Stefan Grimme, W. Hujo, H. Kruse, P. Pracht,  : VdW corrections, initial TS optimization,
                  C. Bannwarth, S. Ehlert          DFT functionals, gCP, sTDA/sTD-DF
   Ed Valeev, F. Pavosevic, A. Kumar             : LibInt (2-el integral package), F12 methods
   Garnet Chan, S. Sharma, J. Yang, R. Olivares  : DMRG
   Ulf Ekstrom                                   : XCFun DFT Library
   Mihaly Kallay                                 : mrcc  (arbitrary order and MRCC methods)
   Jiri Pittner, Ondrej Demel                    : Mk-CCSD
   Frank Weinhold                                : gennbo (NPA and NBO analysis)
   Christopher J. Cramer and Donald G. Truhlar   : smd solvation model
   Lars Goerigk                                  : TD-DFT with DH, B97 family of functionals
   V. Asgeirsson, H. Jonsson                     : NEB implementation
   FAccTs GmbH                                   : IRC, NEB, NEB-TS, DLPNO-Multilevel, CI-OPT
                                                   MM, QMMM, 2- and 3-layer-ONIOM, Crystal-QMMM,
                                                   LR-CPCM, SF, NACMEs, symmetry and pop. for TD-DFT,
                                                   nearIR, NL-DFT gradient (VV10), updates on ESD,
                                                   ML-optimized integration grids
   S Lehtola, MJT Oliveira, MAL Marques          : LibXC Library
   Liviu Ungur et al                             : ANISO software


 Your calculation uses the libint2 library for the computation of 2-el integrals
 For citations please refer to: http://libint.valeyev.net

 Your ORCA version has been built with support for libXC version: 5.1.0
 For citations please refer to: https://tddft.org/programs/libxc/

 This ORCA versions uses:
   CBLAS   interface :  Fast vector & matrix operations
   LAPACKE interface :  Fast linear algebra routines
   SCALAPACK package :  Parallel linear algebra routines
   Shared memory     :  Shared parallel matrices
   BLAS/LAPACK       :  OpenBLAS 0.3.15  USE64BITINT DYNAMIC_ARCH NO_AFFINITY Zen SINGLE_THREADED
        Core in use  :  Zen
   Copyright (c) 2011-2014, The OpenBLAS Project




***************************************
The coordinates will be read from file: input.xyz
***************************************


================================================================================

----- Orbital basis set information -----
Your calculation utilizes the basis: 6-31G(d)
   H-He, Li-Ne : W. J. Hehre, R. Ditchfield and J.A. Pople, J. Chem. Phys. 56, 2257 (1972).
                 Note: He and Ne are unpublished basis sets taken from the Gaussian program.
                 Note: Li and B from J. D. Dill and J. A. Pople, J. Chem. Phys. 62, 2921 (1975).
   Na - Ar     : M. M. Francl, W. J. Pietro, W. J. Hehre, J. S. Binkley, M. S. Gordon, 
                 D. J. DeFrees and J. A. Pople, J. Chem. Phys. 77, 3654 (1982).
   K - Zn      : V. A. Rassolov, J. A. Pople, M. A. Ratner, and T. L. Windus, J. Chem. Phys. 109, 1223 (1998).

================================================================================
                                        WARNINGS
                       Please study these warnings very carefully!
================================================================================


WARNING: Geometry Optimization
  ===> : Switching off AutoStart
         For restart on a previous wavefunction, please use MOREAD

WARNING: Post HF methods need fully converged wavefunctions
  ===> : Setting SCFConvForced true
         You can overwrite this default with %scf ConvForced false 


INFO   : the flag for use of the SHARK integral package has been found!

================================================================================
                                       INPUT FILE
================================================================================
NAME = input.orc
|  1> ! MP2 UHF 6-31G(d) OPTTS NumFreq NoFrozenCore VERYTIGHTSCF VERYTIGHTOPT
|  2> * XYZfile 0 2 input.xyz
|  3> 
|  4>                          ****END OF INPUT****
================================================================================

                       *****************************
                       * Geometry Optimization Run *
                       *****************************

Geometry optimization settings:
Update method            Update   .... Bofill
Choice of coordinates    CoordSys .... Z-matrix Internals
Initial Hessian          InHess   .... Almoef's Model

Convergence Tolerances:
Energy Change            TolE     ....  2.0000e-07 Eh
Max. Gradient            TolMAXG  ....  3.0000e-05 Eh/bohr
RMS Gradient             TolRMSG  ....  8.0000e-06 Eh/bohr
Max. Displacement        TolMAXD  ....  2.0000e-04 bohr
RMS Displacement         TolRMSD  ....  1.0000e-04 bohr
Strict Convergence                ....  False
------------------------------------------------------------------------------
                        ORCA OPTIMIZATION COORDINATE SETUP
------------------------------------------------------------------------------

The optimization will be done in new redundant internal coordinates
Making redundant internal coordinates   ...  (new redundants) done
Following TS mode number                ...     0
Evaluating the initial hessian          ...  (Almloef) done
Evaluating the coordinates              ...  done
Calculating the B-matrix                .... done
Calculating the G-matrix                .... done
Diagonalizing the G-matrix              .... done
The first mode is                       ....   13
The number of degrees of freedom        ....   18

    -----------------------------------------------------------------
                    Redundant Internal Coordinates


    -----------------------------------------------------------------
         Definition                    Initial Value    Approx d2E/dq
    -----------------------------------------------------------------
      1. B(H   1,C   0)                  1.0911         0.358638   
      2. B(C   2,H   1)                  2.5929         0.001441   
      3. B(C   2,C   0)                  2.0221         0.061268   
      4. B(F   3,C   2)                  1.3867         0.526337   
      5. B(O   4,C   2)                  1.2200         1.044960   
      6. B(H   5,C   2)                  2.5892         0.001461   
      7. B(H   5,C   0)                  1.0919         0.357592   
      8. B(F   6,C   0)                  1.3865         0.526723   
      9. B(H   7,C   2)                  1.1018         0.344853   
     10. B(H   7,C   0)                  2.6066         0.001370   
     11. A(C   2,C   0,H   5)          108.7922         0.245049   
     12. A(H   5,C   0,F   6)          109.1631         0.339449   
     13. A(H   1,C   0,F   6)          109.4773         0.339615   
     14. A(C   2,C   0,F   6)          109.6379         0.283245   
     15. A(H   1,C   0,H   5)          110.6552         0.290335   
     16. A(H   1,C   0,C   2)          109.0990         0.245153   
     17. A(C   0,C   2,H   7)          109.5545         0.243773   
     18. A(O   4,C   2,H   7)          107.5721         0.380693   
     19. A(F   3,C   2,H   7)          107.6550         0.337360   
     20. A(C   0,C   2,O   4)          111.5567         0.317098   
     21. A(C   0,C   2,F   3)          107.1988         0.283213   
     22. A(F   3,C   2,O   4)          113.2075         0.455022   
     23. D(F   3,C   2,C   0,H   5)    -58.4437         0.001768   
     24. D(F   3,C   2,C   0,F   6)     60.8690         0.001768   
     25. D(O   4,C   2,C   0,H   1)    -54.7912         0.001768   
     26. D(O   4,C   2,C   0,H   5)     66.0150         0.001768   
     27. D(O   4,C   2,C   0,F   6)   -174.6724         0.001768   
     28. D(H   7,C   2,C   0,H   1)     64.2081         0.001768   
     29. D(H   7,C   2,C   0,H   5)   -174.9857         0.001768   
     30. D(H   7,C   2,C   0,F   6)    -55.6731         0.001768   
     31. D(F   3,C   2,C   0,H   1)   -179.2498         0.001768   
    -----------------------------------------------------------------

Number of atoms                         .... 8
Number of degrees of freedom            .... 31

         *************************************************************
         *                GEOMETRY OPTIMIZATION CYCLE   1            *
         *************************************************************
---------------------------------
CARTESIAN COORDINATES (ANGSTROEM)
---------------------------------
  C      0.958672   -0.081040    0.143565
  H      0.571093    0.223657    1.116940
  C      0.262148    1.184365   -1.271556
  F      0.762976    0.752301   -2.490315
  O     -0.955635    1.254600   -1.249887
  H      0.633835   -1.094591   -0.100253
  F      2.344385   -0.039813    0.164209
  H      0.657024    2.196417   -1.087882

----------------------------
CARTESIAN COORDINATES (A.U.)
----------------------------
  NO LB      ZA    FRAG     MASS         X           Y           Z
   0 C     6.0000    0    12.011    1.811627   -0.153144    0.271299
   1 H     1.0000    0     1.008    1.079209    0.422650    2.110710
   2 C     6.0000    0    12.011    0.495389    2.238126   -2.402893
   3 F     9.0000    0    18.998    1.441815    1.421642   -4.706014
   4 O     8.0000    0    15.999   -1.805889    2.370850   -2.361945
   5 H     1.0000    0     1.008    1.197775   -2.068476   -0.189451
   6 F     9.0000    0    18.998    4.430245   -0.075235    0.310310
   7 H     1.0000    0     1.008    1.241596    4.150627   -2.055798

--------------------------------
INTERNAL COORDINATES (ANGSTROEM)
--------------------------------
 C      0   0   0     0.000000000000     0.00000000     0.00000000
 H      1   0   0     1.091107420360     0.00000000     0.00000000
 C      1   2   0     2.022118955599   109.09900219     0.00000000
 F      3   1   2     1.386679655922   107.19876156   180.75019605
 O      3   1   2     1.220000000017   111.55672494   305.20882912
 H      1   2   3     1.091902512216   110.65519863   240.34001791
 F      1   2   3     1.386480002843   109.47728044   119.98029119
 H      3   1   2     1.101777012604   109.55449918    64.20813873

---------------------------
INTERNAL COORDINATES (A.U.)
---------------------------
 C      0   0   0     0.000000000000     0.00000000     0.00000000
 H      1   0   0     2.061894207170     0.00000000     0.00000000
 C      1   2   0     3.821251036292   109.09900219     0.00000000
 F      3   1   2     2.620444785172   107.19876156   180.75019605
 O      3   1   2     2.305465883416   111.55672494   305.20882912
 H      1   2   3     2.063396713028   110.65519863   240.34001791
 F      1   2   3     2.620067495531   109.47728044   119.98029119
 H      3   1   2     2.082056814472   109.55449918    64.20813873

---------------------
BASIS SET INFORMATION
---------------------
There are 4 groups of distinct atoms

 Group   1 Type C   : 10s4p1d contracted to 3s2p1d pattern {631/31/1}
 Group   2 Type H   : 4s contracted to 2s pattern {31}
 Group   3 Type F   : 10s4p1d contracted to 3s2p1d pattern {631/31/1}
 Group   4 Type O   : 10s4p1d contracted to 3s2p1d pattern {631/31/1}

Atom   0C    basis set group =>   1
Atom   1H    basis set group =>   2
Atom   2C    basis set group =>   1
Atom   3F    basis set group =>   3
Atom   4O    basis set group =>   4
Atom   5H    basis set group =>   2
Atom   6F    basis set group =>   3
Atom   7H    basis set group =>   2
------------------------------------------------------------------------------
                           ORCA GTO INTEGRAL CALCULATION
------------------------------------------------------------------------------
------------------------------------------------------------------------------
                   ___                                                        
                  /   \      - P O W E R E D   B Y -                         
                 /     \                                                     
                 |  |  |   _    _      __       _____    __    __             
                 |  |  |  | |  | |    /  \     |  _  \  |  |  /  |          
                  \  \/   | |  | |   /    \    | | | |  |  | /  /          
                 / \  \   | |__| |  /  /\  \   | |_| |  |  |/  /          
                |  |  |   |  __  | /  /__\  \  |    /   |      \           
                |  |  |   | |  | | |   __   |  |    \   |  |\   \          
                \     /   | |  | | |  |  |  |  | |\  \  |  | \   \       
                 \___/    |_|  |_| |__|  |__|  |_| \__\ |__|  \__/        
                                                                              
                      - O R C A' S   B I G   F R I E N D -                    
                                      &                                       
                       - I N T E G R A L  F E E D E R -                       
                                                                              
 v1 FN, 2020, v2 2021                                                         
------------------------------------------------------------------------------


Reading SHARK input file input.SHARKINP.tmp ... ok
----------------------
SHARK INTEGRAL PACKAGE
----------------------

Number of atoms                             ...      8
Number of basis functions                   ...     76
Number of shells                            ...     36
Maximum angular momentum                    ...      2
Integral batch strategy                     ... SHARK/LIBINT Hybrid
RI-J (if used) integral strategy            ... SPLIT-RIJ (Revised 2003 algorithm where possible)
Printlevel                                  ...      1
Contraction scheme used                     ... SEGMENTED contraction
Coulomb Range Separation                    ... NOT USED
Exchange Range Separation                   ... NOT USED
Finite Nucleus Model                        ... NOT USED
Auxiliary Coulomb fitting basis             ... NOT available
Auxiliary J/K fitting basis                 ... NOT available
Auxiliary Correlation fitting basis         ... NOT available
Auxiliary 'external' fitting basis          ... NOT available
Integral threshold                          ...     1.000000e-12
Primitive cut-off                           ...     1.000000e-14
Primitive pair pre-selection threshold      ...     1.000000e-14

Calculating pre-screening integrals         ... done (  0.0 sec) Dimension = 36
Organizing shell pair data                  ... done (  0.1 sec)
Shell pair information
Total number of shell pairs                 ...       666
Shell pairs after pre-screening             ...       650
Total number of primitive shell pairs       ...      3942
Primitive shell pairs kept                  ...      2784
          la=0 lb=0:    221 shell pairs
          la=1 lb=0:    206 shell pairs
          la=1 lb=1:     55 shell pairs
          la=2 lb=0:    103 shell pairs
          la=2 lb=1:     50 shell pairs
          la=2 lb=2:     15 shell pairs

Calculating one electron integrals          ... done (  0.0 sec)
Calculating Nuclear repulsion               ... done (  0.0 sec) ENN=    171.741353752798 Eh

SHARK setup successfully completed in   0.3 seconds

Maximum memory used throughout the entire GTOINT-calculation: 7.5 MB
-------------------------------------------------------------------------------
                                 ORCA SCF
-------------------------------------------------------------------------------

------------
SCF SETTINGS
------------
Hamiltonian:
 Ab initio Hamiltonian  Method          .... Hartree-Fock(GTOs)


General Settings:
 Integral files         IntName         .... input
 Hartree-Fock type      HFTyp           .... UHF
 Total Charge           Charge          ....    0
 Multiplicity           Mult            ....    2
 Number of Electrons    NEL             ....   41
 Basis Dimension        Dim             ....   76
 Nuclear Repulsion      ENuc            ....    171.7413537528 Eh

Convergence Acceleration:
 DIIS                   CNVDIIS         .... on
   Start iteration      DIISMaxIt       ....    12
   Startup error        DIISStart       ....  0.200000
   # of expansion vecs  DIISMaxEq       ....     5
   Bias factor          DIISBfac        ....   1.050
   Max. coefficient     DIISMaxC        ....  10.000
 Trust-Rad. Augm. Hess. CNVTRAH         .... auto
   Auto Start mean grad. ratio tolernc. ....  1.125000
   Auto Start start iteration           ....    20
   Auto Start num. interpolation iter.  ....    10
   Max. Number of Micro iterations      ....    16
   Max. Number of Macro iterations      .... Maxiter - #DIIS iter
   Number of Davidson start vectors     ....     2
   Converg. threshold I  (grad. norm)   ....   2.000e-06
   Converg. threshold II (energy diff.) ....   1.000e-09
   Grad. Scal. Fac. for Micro threshold ....   0.100
   Minimum threshold for Micro iter.    ....   0.010
   NR start threshold (gradient norm)   ....   0.001
   Initial trust radius                 ....   0.400
   Minimum AH scaling param. (alpha)    ....   1.000
   Maximum AH scaling param. (alpha)    .... 1000.000
   Orbital update algorithm             .... Taylor
   White noise on init. David. guess    .... on
   Maximum white noise                  ....   0.010
   Quad. conv. algorithm                .... NR
 SOSCF                  CNVSOSCF        .... off
 Level Shifting         CNVShift        .... on
   Level shift para.    LevelShift      ....    0.2500
   Turn off err/grad.   ShiftErr        ....    0.0010
 Zerner damping         CNVZerner       .... off
 Static damping         CNVDamp         .... on
   Fraction old density DampFac         ....    0.7000
   Max. Damping (<1)    DampMax         ....    0.9800
   Min. Damping (>=0)   DampMin         ....    0.0000
   Turn off err/grad.   DampErr         ....    0.1000
 Fernandez-Rico         CNVRico         .... off

SCF Procedure:
 Maximum # iterations   MaxIter         ....   125
 SCF integral mode      SCFMode         .... Direct
   Integral package                     .... SHARK and LIBINT hybrid scheme
 Reset frequency        DirectResetFreq ....    20
 Integral Threshold     Thresh          ....  1.000e-12 Eh
 Primitive CutOff       TCut            ....  1.000e-14 Eh

Convergence Tolerance:
 Convergence Check Mode ConvCheckMode   .... Total+1el-Energy
 Convergence forced     ConvForced      .... 1
 Energy Change          TolE            ....  1.000e-09 Eh
 1-El. energy change                    ....  1.000e-06 Eh
 DIIS Error             TolErr          ....  1.000e-08


Diagonalization of the overlap matrix:
Smallest eigenvalue                        ... 9.056e-03
Time for diagonalization                   ...    0.001 sec
Threshold for overlap eigenvalues          ... 1.000e-08
Number of eigenvalues below threshold      ... 0
Time for construction of square roots      ...    0.023 sec
Total time needed                          ...    0.024 sec

Time for model grid setup =    0.098 sec

------------------------------
INITIAL GUESS: MODEL POTENTIAL
------------------------------
Loading Hartree-Fock densities                     ... done
Calculating cut-offs                               ... done
Initializing the effective Hamiltonian             ... done
Setting up the integral package (SHARK)            ... done
Starting the Coulomb interaction                   ... done (   0.3 sec)
Reading the grid                                   ... done
Mapping shells                                     ... done
Starting the XC term evaluation                    ... done (   0.0 sec)
Transforming the Hamiltonian                       ... done (   0.0 sec)
Diagonalizing the Hamiltonian                      ... done (   0.0 sec)
Back transforming the eigenvectors                 ... done (   0.0 sec)
Now organizing SCF variables                       ... done
                      ------------------
                      INITIAL GUESS DONE (   0.4 sec)
                      ------------------
--------------
SCF ITERATIONS
--------------
ITER       Energy         Delta-E        Max-DP      RMS-DP      [F,P]     Damp
               ***  Starting incremental Fock matrix formation  ***
  0   -350.9160037762   0.000000000000 0.04127446  0.00122227  0.2563837 0.7000
  1   -350.9681496642  -0.052145888043 0.03198441  0.00090213  0.1472091 0.7000
                               ***Turning on DIIS***
  2   -350.9990930471  -0.030943382875 0.07073692  0.00195165  0.0748311 0.0000
  3   -350.8662904929   0.132802554183 0.02590717  0.00078458  0.0664511 0.0000
  4   -351.1057623086  -0.239471815615 0.01724058  0.00053953  0.0141020 0.0000
  5   -351.0686287928   0.037133515798 0.01380905  0.00048368  0.0103471 0.0000
  6   -351.0821647071  -0.013535914381 0.01585658  0.00058970  0.0085187 0.0000
  7   -351.1044937850  -0.022329077868 0.01655397  0.00065402  0.0075324 0.0000
  8   -351.0901302254   0.014363559604 0.00821985  0.00031612  0.0056504 0.0000
  9   -351.0998989358  -0.009768710373 0.00665782  0.00028366  0.0027813 0.0000
 10   -351.1018410342  -0.001942098392 0.00159899  0.00007285  0.0018927 0.0000
 11   -351.0973321843   0.004508849905 0.00137833  0.00005485  0.0010703 0.0000
 12   -351.0980945751  -0.000762390874 0.00125361  0.00004999  0.0010690 0.0000
 13   -351.0976070668   0.000487508343 0.00148497  0.00005205  0.0010095 0.0000
 14   -351.0972290461   0.000378020664 0.00198674  0.00006919  0.0009056 0.0000
 15   -351.0971683992   0.000060646883 0.00180067  0.00004981  0.0007974 0.0000
 16   -351.0970862753   0.000082123989 0.00193169  0.00004594  0.0006703 0.0000
 17   -351.0969493861   0.000136889115 0.00190446  0.00004407  0.0005067 0.0000
 18   -351.0971741647  -0.000224778559 0.00147394  0.00003533  0.0003133 0.0000
 19   -351.0972448449  -0.000070680200 0.00078700  0.00002056  0.0001482 0.0000
               *** Restarting incremental Fock matrix formation ***
                                   *** Resetting DIIS ***
 20   -351.0974001651  -0.000155320191 0.00006478  0.00000210  0.0000503 0.0000
 21   -351.0974011785  -0.000001013460 0.00005257  0.00000140  0.0000462 0.0000
 22   -351.0973675689   0.000033609644 0.00010550  0.00000275  0.0000418 0.0000
 23   -351.0974007489  -0.000033179973 0.00004794  0.00000110  0.0000316 0.0000
 24   -351.0973928854   0.000007863517 0.00004513  0.00000113  0.0000254 0.0000
 25   -351.0973902943   0.000002591025 0.00005203  0.00000123  0.0000193 0.0000
 26   -351.0973909459  -0.000000651529 0.00005352  0.00000126  0.0000135 0.0000
 27   -351.0973900443   0.000000901550 0.00005707  0.00000134  0.0000083 0.0000
 28   -351.0973971265  -0.000007082164 0.00002143  0.00000052  0.0000030 0.0000
 29   -351.0974001250  -0.000002998508 0.00000530  0.00000013  0.0000017 0.0000
 30   -351.0973999666   0.000000158417 0.00000398  0.00000011  0.0000012 0.0000
 31   -351.0974002520  -0.000000285395 0.00000157  0.00000006  0.0000005 0.0000
 32   -351.0974001517   0.000000100256 0.00000058  0.00000002  0.0000003 0.0000
 33   -351.0974003277  -0.000000176001 0.00000020  0.00000001  0.0000002 0.0000
 34   -351.0974003157   0.000000012035 0.00000025  0.00000001  0.0000002 0.0000
 35   -351.0974003303  -0.000000014575 0.00000020  0.00000001  0.0000001 0.0000
 36   -351.0974002763   0.000000053906 0.00000038  0.00000001  0.0000001 0.0000
 37   -351.0974002930  -0.000000016651 0.00000040  0.00000001  0.0000001 0.0000
 38   -351.0974003033  -0.000000010285 0.00000027  0.00000001  0.0000001 0.0000
 39   -351.0974003145  -0.000000011175 0.00000018  0.00000000  0.0000000 0.0000
               *** Restarting incremental Fock matrix formation ***
                                   *** Resetting DIIS ***
                            ***DIIS convergence achieved***

               *****************************************************
               *                     SUCCESS                       *
               *           SCF CONVERGED AFTER  40 CYCLES          *
               *****************************************************


----------------
TOTAL SCF ENERGY
----------------

Total Energy       :         -351.09740034 Eh           -9553.84597 eV

Components:
Nuclear Repulsion  :          171.74135375 Eh            4673.31982 eV
Electronic Energy  :         -522.83875409 Eh          -14227.16579 eV
One Electron Energy:         -827.24356512 Eh          -22510.44182 eV
Two Electron Energy:          304.40481104 Eh            8283.27602 eV

Virial components:
Potential Energy   :         -701.89556510 Eh          -19099.54933 eV
Kinetic Energy     :          350.79816476 Eh            9545.70336 eV
Virial Ratio       :            2.00085301


---------------
SCF CONVERGENCE
---------------

  Last Energy change         ...   -2.2308e-08  Tolerance :   1.0000e-09
  Last MAX-Density change    ...    1.6483e-08  Tolerance :   1.0000e-08
  Last RMS-Density change    ...    5.9635e-10  Tolerance :   1.0000e-09
  Last DIIS Error            ...    1.1734e-08  Tolerance :   1.0000e-08

             **** THE GBW FILE WAS UPDATED (input.gbw) ****
             **** DENSITY input.scfp WAS UPDATED ****
             **** ENERGY FILE WAS UPDATED (input.en.tmp) ****
----------------------
UHF SPIN CONTAMINATION
----------------------

Expectation value of <S**2>     :     0.913408
Ideal value S*(S+1) for S=0.5   :     0.750000
Deviation                       :     0.163408

             **** THE GBW FILE WAS UPDATED (input.gbw) ****
             **** DENSITY input.scfp WAS UPDATED ****
----------------
ORBITAL ENERGIES
----------------
                 SPIN UP ORBITALS
  NO   OCC          E(Eh)            E(eV) 
   0   1.0000     -26.310725      -715.9512 
   1   1.0000     -26.284124      -715.2274 
   2   1.0000     -20.651919      -561.9673 
   3   1.0000     -11.394058      -310.0481 
   4   1.0000     -11.375602      -309.5459 
   5   1.0000      -1.615164       -43.9508 
   6   1.0000      -1.604660       -43.6650 
   7   1.0000      -1.482565       -40.3426 
   8   1.0000      -0.984818       -26.7983 
   9   1.0000      -0.883445       -24.0398 
  10   1.0000      -0.765757       -20.8373 
  11   1.0000      -0.732775       -19.9398 
  12   1.0000      -0.729033       -19.8380 
  13   1.0000      -0.722579       -19.6624 
  14   1.0000      -0.707335       -19.2476 
  15   1.0000      -0.664593       -18.0845 
  16   1.0000      -0.633083       -17.2271 
  17   1.0000      -0.594482       -16.1767 
  18   1.0000      -0.564542       -15.3620 
  19   1.0000      -0.530152       -14.4262 
  20   1.0000      -0.444458       -12.0943 
  21   0.0000       0.196497         5.3470 
  22   0.0000       0.241289         6.5658 
  23   0.0000       0.277890         7.5618 
  24   0.0000       0.285255         7.7622 
  25   0.0000       0.297007         8.0820 
  26   0.0000       0.376331        10.2405 
  27   0.0000       0.461871        12.5682 
  28   0.0000       0.690960        18.8020 
  29   0.0000       0.722767        19.6675 
  30   0.0000       0.748141        20.3579 
  31   0.0000       0.816785        22.2258 
  32   0.0000       0.885520        24.0962 
  33   0.0000       0.905603        24.6427 
  34   0.0000       0.989562        26.9274 
  35   0.0000       1.067513        29.0485 
  36   0.0000       1.087429        29.5904 
  37   0.0000       1.104658        30.0593 
  38   0.0000       1.134703        30.8768 
  39   0.0000       1.223497        33.2931 
  40   0.0000       1.231899        33.5217 
  41   0.0000       1.328184        36.1417 
  42   0.0000       1.518257        41.3139 
  43   0.0000       1.527178        41.5566 
  44   0.0000       1.557376        42.3784 
  45   0.0000       1.566571        42.6286 
  46   0.0000       1.621018        44.1101 
  47   0.0000       1.655650        45.0525 
  48   0.0000       1.709862        46.5277 
  49   0.0000       1.722732        46.8779 
  50   0.0000       1.752284        47.6821 
  51   0.0000       1.780483        48.4494 
  52   0.0000       1.839816        50.0639 
  53   0.0000       1.925392        52.3926 
  54   0.0000       1.982399        53.9438 
  55   0.0000       2.060278        56.0630 
  56   0.0000       2.099940        57.1423 
  57   0.0000       2.127100        57.8813 
  58   0.0000       2.155200        58.6460 
  59   0.0000       2.170008        59.0489 
  60   0.0000       2.274687        61.8974 
  61   0.0000       2.323351        63.2216 
  62   0.0000       2.342777        63.7502 
  63   0.0000       2.417840        65.7928 
  64   0.0000       2.444953        66.5306 
  65   0.0000       2.484301        67.6013 
  66   0.0000       2.543957        69.2246 
  67   0.0000       2.686754        73.1103 
  68   0.0000       2.719407        73.9988 
  69   0.0000       2.757576        75.0375 
  70   0.0000       2.765796        75.2611 
  71   0.0000       2.877424        78.2987 
  72   0.0000       3.061807        83.3160 
  73   0.0000       3.269918        88.9790 
  74   0.0000       3.349661        91.1489 
  75   0.0000       3.417300        92.9894 

                 SPIN DOWN ORBITALS
  NO   OCC          E(Eh)            E(eV) 
   0   1.0000     -26.308046      -715.8783 
   1   1.0000     -26.286351      -715.2880 
   2   1.0000     -20.618168      -561.0489 
   3   1.0000     -11.409214      -310.4605 
   4   1.0000     -11.358188      -309.0720 
   5   1.0000      -1.608846       -43.7789 
   6   1.0000      -1.605062       -43.6759 
   7   1.0000      -1.396978       -38.0137 
   8   1.0000      -0.943563       -25.6756 
   9   1.0000      -0.868879       -23.6434 
  10   1.0000      -0.747814       -20.3491 
  11   1.0000      -0.718736       -19.5578 
  12   1.0000      -0.705320       -19.1927 
  13   1.0000      -0.702681       -19.1209 
  14   1.0000      -0.690858       -18.7992 
  15   1.0000      -0.649536       -17.6748 
  16   1.0000      -0.592429       -16.1208 
  17   1.0000      -0.557113       -15.1598 
  18   1.0000      -0.517146       -14.0723 
  19   1.0000      -0.473147       -12.8750 
  20   0.0000       0.045765         1.2453 
  21   0.0000       0.216277         5.8852 
  22   0.0000       0.249235         6.7820 
  23   0.0000       0.294910         8.0249 
  24   0.0000       0.299504         8.1499 
  25   0.0000       0.324374         8.8267 
  26   0.0000       0.366835         9.9821 
  27   0.0000       0.466085        12.6828 
  28   0.0000       0.687908        18.7189 
  29   0.0000       0.756792        20.5934 
  30   0.0000       0.766464        20.8565 
  31   0.0000       0.825728        22.4692 
  32   0.0000       0.886005        24.1094 
  33   0.0000       0.918868        25.0037 
  34   0.0000       0.999650        27.2019 
  35   0.0000       1.083070        29.4718 
  36   0.0000       1.098698        29.8971 
  37   0.0000       1.115379        30.3510 
  38   0.0000       1.153337        31.3839 
  39   0.0000       1.245367        33.8882 
  40   0.0000       1.307434        35.5771 
  41   0.0000       1.365903        37.1681 
  42   0.0000       1.519905        41.3587 
  43   0.0000       1.532741        41.7080 
  44   0.0000       1.559971        42.4490 
  45   0.0000       1.575590        42.8740 
  46   0.0000       1.630214        44.3604 
  47   0.0000       1.656996        45.0892 
  48   0.0000       1.713654        46.6309 
  49   0.0000       1.728839        47.0441 
  50   0.0000       1.757412        47.8216 
  51   0.0000       1.799671        48.9715 
  52   0.0000       1.864731        50.7419 
  53   0.0000       1.949655        53.0528 
  54   0.0000       2.031710        55.2856 
  55   0.0000       2.092278        56.9338 
  56   0.0000       2.103129        57.2291 
  57   0.0000       2.141079        58.2617 
  58   0.0000       2.157712        58.7143 
  59   0.0000       2.181888        59.3722 
  60   0.0000       2.279596        62.0310 
  61   0.0000       2.333012        63.4845 
  62   0.0000       2.354639        64.0730 
  63   0.0000       2.430685        66.1423 
  64   0.0000       2.462469        67.0072 
  65   0.0000       2.498767        67.9949 
  66   0.0000       2.550315        69.3976 
  67   0.0000       2.696178        73.3667 
  68   0.0000       2.727569        74.2209 
  69   0.0000       2.761333        75.1397 
  70   0.0000       2.769804        75.3702 
  71   0.0000       2.896953        78.8301 
  72   0.0000       3.060904        83.2914 
  73   0.0000       3.280628        89.2704 
  74   0.0000       3.356612        91.3380 
  75   0.0000       3.413426        92.8841 

                    ********************************
                    * MULLIKEN POPULATION ANALYSIS *
                    ********************************

--------------------------------------------
MULLIKEN ATOMIC CHARGES AND SPIN POPULATIONS
--------------------------------------------
   0 C :    0.100162    0.632542
   1 H :    0.194413   -0.025934
   2 C :    0.472218   -0.516962
   3 F :   -0.447524   -0.015085
   4 O :   -0.307709    0.819873
   5 H :    0.205371   -0.024383
   6 F :   -0.417903    0.015525
   7 H :    0.200973    0.114425
Sum of atomic charges         :    0.0000000
Sum of atomic spin populations:    1.0000000

-----------------------------------------------------
MULLIKEN REDUCED ORBITAL CHARGES AND SPIN POPULATIONS
-----------------------------------------------------
CHARGE
  0 C s       :     3.269849  s :     3.269849
      pz      :     0.987254  p :     2.559977
      px      :     0.549031
      py      :     1.023692
      dz2     :     0.014051  d :     0.070012
      dxz     :     0.014926
      dyz     :     0.005505
      dx2y2   :     0.021848
      dxy     :     0.013682
  1 H s       :     0.805587  s :     0.805587
  2 C s       :     3.091711  s :     3.091711
      pz      :     0.639514  p :     2.309397
      px      :     0.727773
      py      :     0.942110
      dz2     :     0.026639  d :     0.126674
      dxz     :     0.033929
      dyz     :     0.013448
      dx2y2   :     0.029971
      dxy     :     0.022686
  3 F s       :     3.979933  s :     3.979933
      pz      :     1.629006  p :     5.451819
      px      :     1.908844
      py      :     1.913968
      dz2     :     0.006331  d :     0.015772
      dxz     :     0.004223
      dyz     :     0.003819
      dx2y2   :     0.000541
      dxy     :     0.000859
  4 O s       :     3.892392  s :     3.892392
      pz      :     1.709944  p :     4.385792
      px      :     1.401752
      py      :     1.274095
      dz2     :     0.003234  d :     0.029526
      dxz     :     0.007383
      dyz     :     0.000402
      dx2y2   :     0.009292
      dxy     :     0.009214
  5 H s       :     0.794629  s :     0.794629
  6 F s       :     3.977061  s :     3.977061
      pz      :     1.947325  p :     5.423833
      px      :     1.526311
      py      :     1.950197
      dz2     :     0.002687  d :     0.017009
      dxz     :     0.003210
      dyz     :     0.000015
      dx2y2   :     0.008031
      dxy     :     0.003065
  7 H s       :     0.799027  s :     0.799027

SPIN
  0 C s       :     0.119120  s :     0.119120
      pz      :     0.265707  p :     0.515482
      px      :     0.030699
      py      :     0.219076
      dz2     :    -0.001020  d :    -0.002060
      dxz     :    -0.000069
      dyz     :    -0.000601
      dx2y2   :    -0.000478
      dxy     :     0.000107
  1 H s       :    -0.025934  s :    -0.025934
  2 C s       :    -0.129293  s :    -0.129293
      pz      :    -0.136950  p :    -0.402016
      px      :    -0.070130
      py      :    -0.194937
      dz2     :     0.000860  d :     0.014347
      dxz     :     0.000719
      dyz     :     0.001809
      dx2y2   :     0.001624
      dxy     :     0.009336
  3 F s       :     0.000135  s :     0.000135
      pz      :    -0.011322  p :    -0.015394
      px      :    -0.000108
      py      :    -0.003964
      dz2     :     0.000271  d :     0.000173
      dxz     :    -0.000024
      dyz     :    -0.000037
      dx2y2   :     0.000002
      dxy     :    -0.000038
  4 O s       :     0.028355  s :     0.028355
      pz      :     0.148960  p :     0.794885
      px      :     0.020734
      py      :     0.625191
      dz2     :    -0.000054  d :    -0.003366
      dxz     :    -0.000735
      dyz     :    -0.000058
      dx2y2   :    -0.000043
      dxy     :    -0.002476
  5 H s       :    -0.024383  s :    -0.024383
  6 F s       :    -0.000353  s :    -0.000353
      pz      :     0.014372  p :     0.015891
      px      :    -0.009372
      py      :     0.010891
      dz2     :     0.000041  d :    -0.000014
      dxz     :    -0.000085
      dyz     :    -0.000003
      dx2y2   :     0.000078
      dxy     :    -0.000044
  7 H s       :     0.114425  s :     0.114425


                     *******************************
                     * LOEWDIN POPULATION ANALYSIS *
                     *******************************

-------------------------------------------
LOEWDIN ATOMIC CHARGES AND SPIN POPULATIONS
-------------------------------------------
   0 C :    0.011981    0.516813
   1 H :    0.134941   -0.013508
   2 C :    0.093141   -0.331887
   3 F :   -0.231896   -0.025831
   4 O :   -0.077936    0.752033
   5 H :    0.141143   -0.012111
   6 F :   -0.214058    0.032803
   7 H :    0.142684    0.081687

----------------------------------------------------
LOEWDIN REDUCED ORBITAL CHARGES AND SPIN POPULATIONS
----------------------------------------------------
CHARGE
  0 C s       :     3.041705  s :     3.041705
      pz      :     1.036922  p :     2.808581
      px      :     0.706961
      py      :     1.064699
      dz2     :     0.024910  d :     0.137733
      dxz     :     0.030235
      dyz     :     0.008199
      dx2y2   :     0.046161
      dxy     :     0.028228
  1 H s       :     0.865059  s :     0.865059
  2 C s       :     2.930394  s :     2.930394
      pz      :     0.778758  p :     2.694265
      px      :     0.940844
      py      :     0.974664
      dz2     :     0.058195  d :     0.282199
      dxz     :     0.079902
      dyz     :     0.030167
      dx2y2   :     0.063820
      dxy     :     0.050115
  3 F s       :     3.767053  s :     3.767053
      pz      :     1.633357  p :     5.435369
      px      :     1.893458
      py      :     1.908554
      dz2     :     0.011218  d :     0.029474
      dxz     :     0.007106
      dyz     :     0.007763
      dx2y2   :     0.001699
      dxy     :     0.001687
  4 O s       :     3.585706  s :     3.585706
      pz      :     1.669606  p :     4.435247
      px      :     1.503120
      py      :     1.262521
      dz2     :     0.007043  d :     0.056983
      dxz     :     0.011731
      dyz     :     0.000522
      dx2y2   :     0.020405
      dxy     :     0.017280
  5 H s       :     0.858857  s :     0.858857
  6 F s       :     3.764735  s :     3.764735
      pz      :     1.937487  p :     5.418195
      px      :     1.539288
      py      :     1.941420
      dz2     :     0.004082  d :     0.031128
      dxz     :     0.007344
      dyz     :     0.000039
      dx2y2   :     0.012253
      dxy     :     0.007411
  7 H s       :     0.857316  s :     0.857316

SPIN
  0 C s       :     0.078041  s :     0.078041
      pz      :     0.225428  p :     0.442767
      px      :     0.028888
      py      :     0.188451
      dz2     :    -0.001209  d :    -0.003995
      dxz     :    -0.000189
      dyz     :    -0.001973
      dx2y2   :    -0.000797
      dxy     :     0.000173
  1 H s       :    -0.013508  s :    -0.013508
  2 C s       :    -0.069417  s :    -0.069417
      pz      :    -0.109448  p :    -0.296409
      px      :    -0.055524
      py      :    -0.131437
      dz2     :     0.001973  d :     0.033939
      dxz     :     0.002302
      dyz     :     0.003506
      dx2y2   :     0.003848
      dxy     :     0.022309
  3 F s       :    -0.002261  s :    -0.002261
      pz      :    -0.014110  p :    -0.020778
      px      :    -0.001158
      py      :    -0.005510
      dz2     :    -0.001454  d :    -0.002792
      dxz     :    -0.000285
      dyz     :    -0.000546
      dx2y2   :    -0.000083
      dxy     :    -0.000425
  4 O s       :     0.015206  s :     0.015206
      pz      :     0.139693  p :     0.745586
      px      :     0.009637
      py      :     0.596256
      dz2     :    -0.000463  d :    -0.008759
      dxz     :    -0.002953
      dyz     :    -0.000033
      dx2y2   :    -0.000300
      dxy     :    -0.005010
  5 H s       :    -0.012111  s :    -0.012111
  6 F s       :     0.001660  s :     0.001660
      pz      :     0.018001  p :     0.026926
      px      :    -0.005041
      py      :     0.013966
      dz2     :     0.000160  d :     0.004217
      dxz     :     0.001902
      dyz     :    -0.000014
      dx2y2   :     0.000552
      dxy     :     0.001617
  7 H s       :     0.081687  s :     0.081687


                      *****************************
                      * MAYER POPULATION ANALYSIS *
                      *****************************

  NA   - Mulliken gross atomic population
  ZA   - Total nuclear charge
  QA   - Mulliken gross atomic charge
  VA   - Mayer's total valence
  BVA  - Mayer's bonded valence
  FA   - Mayer's free valence

  ATOM       NA         ZA         QA         VA         BVA        FA
  0 C      5.8998     6.0000     0.1002     3.5767     3.2574     0.3193
  1 H      0.8056     1.0000     0.1944     0.9146     0.9140     0.0007
  2 C      5.5278     6.0000     0.4722     3.6985     3.5301     0.1683
  3 F      9.4475     9.0000    -0.4475     0.8011     0.8003     0.0008
  4 O      8.3077     8.0000    -0.3077     1.9849     1.3836     0.6013
  5 H      0.7946     1.0000     0.2054     0.9158     0.9152     0.0006
  6 F      9.4179     9.0000    -0.4179     0.8436     0.8410     0.0026
  7 H      0.7990     1.0000     0.2010     0.9250     0.9119     0.0131

  Mayer bond orders larger than 0.100000
B(  0-C ,  1-H ) :   0.9209 B(  0-C ,  2-C ) :   0.5403 B(  0-C ,  5-H ) :   0.9238 
B(  0-C ,  6-F ) :   0.8128 B(  2-C ,  3-F ) :   0.7707 B(  2-C ,  4-O ) :   1.3089 
B(  2-C ,  7-H ) :   0.8948 

-------
TIMINGS
-------

Total SCF time: 0 days 0 hours 0 min 21 sec 

Total time                  ....      21.233 sec
Sum of individual times     ....      19.210 sec  ( 90.5%)

Fock matrix formation       ....      17.067 sec  ( 80.4%)
Diagonalization             ....       0.580 sec  (  2.7%)
Density matrix formation    ....       0.005 sec  (  0.0%)
Population analysis         ....       0.514 sec  (  2.4%)
Initial guess               ....       0.336 sec  (  1.6%)
Orbital Transformation      ....       0.000 sec  (  0.0%)
Orbital Orthonormalization  ....       0.000 sec  (  0.0%)
DIIS solution               ....       0.610 sec  (  2.9%)

Maximum memory used throughout the entire SCF-calculation: 230.3 MB

------------------------------------------------------------------------------
                                ORCA  MP2 
------------------------------------------------------------------------------

MP2 will be done in the AO integral direct mode
The Q1-step will be done using symmetric double matrices
Dimension of the basis                    ...   76
Memory devoted for MP2                    ...  256 MB   
Memory needed for all in one shot         ...   37 MB
Number of MOs that can be treated together...  149      
MP2 density construction                  ... relaxed
The MP2 gradient is requested => amplitudes will be stored on disk
Total number of MOs              ...   21
Number of MOs treated per batch  ...   21 
Number of batches necessary      ...    1 
OPERATORS   0/  0 PASS   0
OPERATORS   0/  1 PASS   0
Total number of MOs              ...   21
Number of MOs treated per batch  ...   20 
Number of batches necessary      ...    1 
OPERATORS   1/  0 PASS   0
OPERATORS   1/  1 PASS   0

Correlation energy components
 E2 and T2 for alpha/alpha pairs :     -0.103150414 Eh
 E2 and T2 for beta/beta   pairs :     -0.097446527 Eh
 E2 and T2 for alpha/beta  pairs :     -0.539503638 Eh

-----------------------------------------------
 MP2 CORRELATION ENERGY   :     -0.740100579 Eh
-----------------------------------------------


---------------------
MP2 DENSITY FORMATION
---------------------

Completing the external part of the density      ... done
Storing the unrelaxed density                    ... done

Calculating G(D)                                 ... done
Completing the Lagrangian                        ... done
Solving the Z-vector equations                   ... 

------------------------------------------------------------------------------
                           ORCA CP-SCF CALCULATION
------------------------------------------------------------------------------

Input orbitals are from        ... input.gbw
Input Perturbation             ... input.pin.tmp
Wavefunction output            ... input.pout.tmp
Perturbation mode              ... Real perturbation (singlet)
Solver                         ... POPLE
Max. number of iterations      ... 128
Convergence tolerance          ... 3.000e-05
Integral handling              ... Direct
Number of perturbations        ... 1
Number of operators            ... 2
Orbital ranges used for CP-SCF:
 Operator 0:  Orbitals   0... 20  to  21... 75
 Operator 1:  Orbitals   0... 19  to  20... 75
Variables per perturbation     ... 2275
Memory available               ... 1015.7 MB
Memory needed per perturbation ...   4.7 MB
Perturbations treated per batch... 1
Number of batches              ... 1
     CP-SCF ITERATION   0:   1.2239e-01 (   0.4 sec)
     CP-SCF ITERATION   1:   6.2222e-02 (   0.4 sec)
     CP-SCF ITERATION   2:   1.8217e-02 (   0.4 sec)
     CP-SCF ITERATION   3:   7.7136e-03 (   0.4 sec)
     CP-SCF ITERATION   4:   3.4027e-03 (   0.3 sec)
     CP-SCF ITERATION   5:   2.1659e-03 (   0.3 sec)
     CP-SCF ITERATION   6:   1.1936e-03 (   0.3 sec)
     CP-SCF ITERATION   7:   7.3315e-04 (   0.3 sec)
     CP-SCF ITERATION   8:   7.2246e-04 (   0.3 sec)
     CP-SCF ITERATION   9:   4.3820e-04 (   0.3 sec)
     CP-SCF ITERATION  10:   2.0875e-04 (   0.3 sec)
     CP-SCF ITERATION  11:   9.2426e-05 (   0.3 sec)
     CP-SCF ITERATION  12:   4.9691e-05 (   0.3 sec)
     CP-SCF ITERATION  13:   2.4042e-05 (   0.3 sec)
                    *** THE CP-SCF HAS CONVERGED ***
                                                 ... done
Finalizing the relaxed density                   ... done
Transforming P to the AO basis                   ... done
Storing the relaxed density                      ... done

------------------------------------
ENERGY WEIGHTED DENSITY FINALIZATION
------------------------------------

Gathering the parts of the W-matrix              ...                                                                                                           done
Forming the Z-density                            ... done
Transforming Z to the AO basis                   ... done
Calculating G(Z)                                 ... done
Finalizing the W-matrix                          ...                                                                                                           done
Transforming W to the AO basis and storing       ... done

                *********************************************
                * UNRELAXED MP2 DENSITY POPULATION ANALYSIS *
                *********************************************

------------------------------------------------------------------------------
                           ORCA POPULATION ANALYSIS
------------------------------------------------------------------------------
Input electron density              ... input.pmp2ur
Input spin density                  ... input.rmp2ur
BaseName (.gbw .S,...)              ... input

                    ********************************
                    * MULLIKEN POPULATION ANALYSIS *
                    ********************************

------------------------------------------
MULLIKEN ATOMIC CHARGES AND SPIN DENSITIES
------------------------------------------
   0 C :    0.084922    0.623134
   1 H :    0.196029   -0.025374
   2 C :    0.452830   -0.500602
   3 F :   -0.435573   -0.015484
   4 O :   -0.302367    0.811626
   5 H :    0.207016   -0.023807
   6 F :   -0.405718    0.017061
   7 H :    0.202860    0.113446
Sum of atomic charges       :    0.0000000
Sum of atomic spin densities:    1.0000000

---------------------------------------------------
MULLIKEN REDUCED ORBITAL CHARGES AND SPIN DENSITIES
---------------------------------------------------
CHARGE
  0 C s       :     3.267601  s :     3.267601
      pz      :     0.986983  p :     2.566195
      px      :     0.556381
      py      :     1.022831
      dz2     :     0.016259  d :     0.081282
      dxz     :     0.017245
      dyz     :     0.008129
      dx2y2   :     0.023573
      dxy     :     0.016076
  1 H s       :     0.803971  s :     0.803971
  2 C s       :     3.091119  s :     3.091119
      pz      :     0.646087  p :     2.318616
      px      :     0.732036
      py      :     0.940492
      dz2     :     0.028382  d :     0.137435
      dxz     :     0.036071
      dyz     :     0.015767
      dx2y2   :     0.031888
      dxy     :     0.025328
  3 F s       :     3.977976  s :     3.977976
      pz      :     1.617747  p :     5.422448
      px      :     1.899867
      py      :     1.904835
      dz2     :     0.010300  d :     0.035148
      dxz     :     0.008166
      dyz     :     0.007762
      dx2y2   :     0.004308
      dxy     :     0.004614
  4 O s       :     3.887284  s :     3.887284
      pz      :     1.699989  p :     4.366360
      px      :     1.393370
      py      :     1.273001
      dz2     :     0.007167  d :     0.048723
      dxz     :     0.011712
      dyz     :     0.004157
      dx2y2   :     0.012691
      dxy     :     0.012997
  5 H s       :     0.792984  s :     0.792984
  6 F s       :     3.975280  s :     3.975280
      pz      :     1.938473  p :     5.394338
      px      :     1.514341
      py      :     1.941525
      dz2     :     0.006360  d :     0.036099
      dxz     :     0.007231
      dyz     :     0.003648
      dx2y2   :     0.011778
      dxy     :     0.007082
  7 H s       :     0.797140  s :     0.797140

SPIN
  0 C s       :     0.117790  s :     0.117790
      pz      :     0.260254  p :     0.505496
      px      :     0.030535
      py      :     0.214708
      dz2     :    -0.000493  d :    -0.000152
      dxz     :     0.000226
      dyz     :    -0.000034
      dx2y2   :    -0.000203
      dxy     :     0.000351
  1 H s       :    -0.025374  s :    -0.025374
  2 C s       :    -0.126311  s :    -0.126311
      pz      :    -0.132181  p :    -0.387149
      px      :    -0.068315
      py      :    -0.186653
      dz2     :     0.000582  d :     0.012858
      dxz     :     0.000475
      dyz     :     0.001491
      dx2y2   :     0.001272
      dxy     :     0.009036
  3 F s       :     0.000108  s :     0.000108
      pz      :    -0.011360  p :    -0.015741
      px      :    -0.000198
      py      :    -0.004184
      dz2     :     0.000242  d :     0.000150
      dxz     :    -0.000028
      dyz     :    -0.000034
      dx2y2   :     0.000002
      dxy     :    -0.000032
  4 O s       :     0.030449  s :     0.030449
      pz      :     0.145995  p :     0.780871
      px      :     0.019911
      py      :     0.614965
      dz2     :     0.000406  d :     0.000307
      dxz     :    -0.000545
      dyz     :     0.000959
      dx2y2   :     0.000854
      dxy     :    -0.001367
  5 H s       :    -0.023807  s :    -0.023807
  6 F s       :    -0.000276  s :    -0.000276
      pz      :     0.015067  p :     0.017324
      px      :    -0.009201
      py      :     0.011458
      dz2     :     0.000052  d :     0.000012
      dxz     :    -0.000083
      dyz     :     0.000013
      dx2y2   :     0.000077
      dxy     :    -0.000047
  7 H s       :     0.113446  s :     0.113446


                     *******************************
                     * LOEWDIN POPULATION ANALYSIS *
                     *******************************

-----------------------------------------
LOEWDIN ATOMIC CHARGES AND SPIN DENSITIES
-----------------------------------------
   0 C :   -0.003325    0.509567
   1 H :    0.137354   -0.013021
   2 C :    0.076907   -0.318637
   3 F :   -0.221594   -0.025877
   4 O :   -0.075050    0.744379
   5 H :    0.143586   -0.011618
   6 F :   -0.203097    0.034137
   7 H :    0.145219    0.081069

--------------------------------------------------
LOEWDIN REDUCED ORBITAL CHARGES AND SPIN DENSITIES
--------------------------------------------------
CHARGE
  0 C s       :     3.041522  s :     3.041522
      pz      :     1.035884  p :     2.811557
      px      :     0.712328
      py      :     1.063345
      dz2     :     0.027457  d :     0.150246
      dxz     :     0.032721
      dyz     :     0.011054
      dx2y2   :     0.048239
      dxy     :     0.030776
  1 H s       :     0.862646  s :     0.862646
  2 C s       :     2.931139  s :     2.931139
      pz      :     0.783486  p :     2.697872
      px      :     0.941622
      py      :     0.972764
      dz2     :     0.060389  d :     0.294081
      dxz     :     0.081691
      dyz     :     0.032673
      dx2y2   :     0.066639
      dxy     :     0.052688
  3 F s       :     3.765692  s :     3.765692
      pz      :     1.622638  p :     5.406363
      px      :     1.884465
      py      :     1.899260
      dz2     :     0.015486  d :     0.049539
      dxz     :     0.011288
      dyz     :     0.011828
      dx2y2   :     0.005464
      dxy     :     0.005474
  4 O s       :     3.582142  s :     3.582142
      pz      :     1.659843  p :     4.415135
      px      :     1.494018
      py      :     1.261274
      dz2     :     0.011353  d :     0.077772
      dxz     :     0.016160
      dyz     :     0.004285
      dx2y2   :     0.024878
      dxy     :     0.021095
  5 H s       :     0.856414  s :     0.856414
  6 F s       :     3.763329  s :     3.763329
      pz      :     1.928363  p :     5.388892
      px      :     1.528050
      py      :     1.932479
      dz2     :     0.007950  d :     0.050876
      dxz     :     0.011303
      dyz     :     0.003678
      dx2y2   :     0.016581
      dxy     :     0.011364
  7 H s       :     0.854781  s :     0.854781

SPIN
  0 C s       :     0.077273  s :     0.077273
      pz      :     0.220797  p :     0.434191
      px      :     0.028726
      py      :     0.184667
      dz2     :    -0.000639  d :    -0.001896
      dxz     :     0.000131
      dyz     :    -0.001335
      dx2y2   :    -0.000485
      dxy     :     0.000433
  1 H s       :    -0.013021  s :    -0.013021
  2 C s       :    -0.067463  s :    -0.067463
      pz      :    -0.105188  p :    -0.283273
      px      :    -0.053567
      py      :    -0.124518
      dz2     :     0.001687  d :     0.032099
      dxz     :     0.002029
      dyz     :     0.003147
      dx2y2   :     0.003439
      dxy     :     0.021797
  3 F s       :    -0.002301  s :    -0.002301
      pz      :    -0.014038  p :    -0.020881
      px      :    -0.001239
      py      :    -0.005604
      dz2     :    -0.001405  d :    -0.002695
      dxz     :    -0.000289
      dyz     :    -0.000519
      dx2y2   :    -0.000080
      dxy     :    -0.000403
  4 O s       :     0.016910  s :     0.016910
      pz      :     0.136893  p :     0.732414
      px      :     0.009112
      py      :     0.586410
      dz2     :    -0.000009  d :    -0.004945
      dxz     :    -0.002689
      dyz     :     0.000980
      dx2y2   :     0.000613
      dxy     :    -0.003840
  5 H s       :    -0.011618  s :    -0.011618
  6 F s       :     0.001748  s :     0.001748
      pz      :     0.018627  p :     0.028223
      px      :    -0.004882
      py      :     0.014478
      dz2     :     0.000172  d :     0.004167
      dxz     :     0.001864
      dyz     :     0.000003
      dx2y2   :     0.000548
      dxy     :     0.001580
  7 H s       :     0.081069  s :     0.081069


                      *****************************
                      * MAYER POPULATION ANALYSIS *
                      *****************************

  NA   - Mulliken gross atomic population
  ZA   - Total nuclear charge
  QA   - Mulliken gross atomic charge
  VA   - Mayer's total valence
  BVA  - Mayer's bonded valence
  FA   - Mayer's free valence

  ATOM       NA         ZA         QA         VA         BVA        FA
  0 C      5.9151     6.0000     0.0849     3.6562     3.1101     0.5461
  1 H      0.8040     1.0000     0.1960     0.9171     0.8810     0.0361
  2 C      5.5472     6.0000     0.4528     3.7704     3.3586     0.4118
  3 F      9.4356     9.0000    -0.4356     1.0778     0.7538     0.3240
  4 O      8.3024     8.0000    -0.3024     2.1896     1.3082     0.8814
  5 H      0.7930     1.0000     0.2070     0.9179     0.8826     0.0353
  6 F      9.4057     9.0000    -0.4057     1.1165     0.7926     0.3239
  7 H      0.7971     1.0000     0.2029     0.9273     0.8771     0.0502

  Mayer bond orders larger than 0.100000
B(  0-C ,  1-H ) :   0.8891 B(  0-C ,  2-C ) :   0.5076 B(  0-C ,  5-H ) :   0.8922 
B(  0-C ,  6-F ) :   0.7680 B(  2-C ,  3-F ) :   0.7302 B(  2-C ,  4-O ) :   1.2442 
B(  2-C ,  7-H ) :   0.8633 


                *******************************************
                * RELAXED MP2 DENSITY POPULATION ANALYSIS *
                *******************************************

------------------------------------------------------------------------------
                           ORCA POPULATION ANALYSIS
------------------------------------------------------------------------------
Input electron density              ... input.pmp2re
Input spin density                  ... input.rmp2re
BaseName (.gbw .S,...)              ... input

                    ********************************
                    * MULLIKEN POPULATION ANALYSIS *
                    ********************************

------------------------------------------
MULLIKEN ATOMIC CHARGES AND SPIN DENSITIES
------------------------------------------
   0 C :    0.050291    0.436256
   1 H :    0.196677   -0.007588
   2 C :    0.362084   -0.148455
   3 F :   -0.358241   -0.015828
   4 O :   -0.328532    0.593206
   5 H :    0.207014   -0.004004
   6 F :   -0.325495    0.042092
   7 H :    0.196202    0.104320
Sum of atomic charges       :    0.0000000
Sum of atomic spin densities:    1.0000000

---------------------------------------------------
MULLIKEN REDUCED ORBITAL CHARGES AND SPIN DENSITIES
---------------------------------------------------
CHARGE
  0 C s       :     3.275148  s :     3.275148
      pz      :     0.987372  p :     2.597542
      px      :     0.586385
      py      :     1.023785
      dz2     :     0.014694  d :     0.077019
      dxz     :     0.017296
      dyz     :     0.007192
      dx2y2   :     0.021589
      dxy     :     0.016248
  1 H s       :     0.803323  s :     0.803323
  2 C s       :     3.111332  s :     3.111332
      pz      :     0.692546  p :     2.390520
      px      :     0.792297
      py      :     0.905676
      dz2     :     0.026619  d :     0.136064
      dxz     :     0.037620
      dyz     :     0.015358
      dx2y2   :     0.027971
      dxy     :     0.028496
  3 F s       :     3.967518  s :     3.967518
      pz      :     1.586191  p :     5.356488
      px      :     1.885301
      py      :     1.884996
      dz2     :     0.009857  d :     0.034235
      dxz     :     0.007737
      dyz     :     0.007643
      dx2y2   :     0.004407
      dxy     :     0.004591
  4 O s       :     3.864280  s :     3.864280
      pz      :     1.672740  p :     4.416293
      px      :     1.369293
      py      :     1.374259
      dz2     :     0.006849  d :     0.047960
      dxz     :     0.012386
      dyz     :     0.003930
      dx2y2   :     0.011412
      dxy     :     0.013383
  5 H s       :     0.792986  s :     0.792986
  6 F s       :     3.969122  s :     3.969122
      pz      :     1.916899  p :     5.320775
      px      :     1.481283
      py      :     1.922593
      dz2     :     0.005998  d :     0.035597
      dxz     :     0.007710
      dyz     :     0.003652
      dx2y2   :     0.010693
      dxy     :     0.007545
  7 H s       :     0.803798  s :     0.803798

SPIN
  0 C s       :     0.074621  s :     0.074621
      pz      :     0.189118  p :     0.359667
      px      :     0.015560
      py      :     0.154989
      dz2     :     0.000086  d :     0.001969
      dxz     :     0.000492
      dyz     :     0.000810
      dx2y2   :     0.000069
      dxy     :     0.000511
  1 H s       :    -0.007588  s :    -0.007588
  2 C s       :    -0.041338  s :    -0.041338
      pz      :    -0.044138  p :    -0.119366
      px      :    -0.032534
      py      :    -0.042694
      dz2     :     0.000341  d :     0.012249
      dxz     :     0.000962
      dyz     :     0.002031
      dx2y2   :     0.000583
      dxy     :     0.008332
  3 F s       :     0.000112  s :     0.000112
      pz      :    -0.010067  p :    -0.016012
      px      :    -0.001760
      py      :    -0.004184
      dz2     :     0.000009  d :     0.000071
      dxz     :     0.000003
      dyz     :     0.000087
      dx2y2   :    -0.000012
      dxy     :    -0.000016
  4 O s       :     0.019850  s :     0.019850
      pz      :     0.106772  p :     0.572220
      px      :     0.003628
      py      :     0.461819
      dz2     :     0.000438  d :     0.001136
      dxz     :    -0.000420
      dyz     :     0.001072
      dx2y2   :     0.001008
      dxy     :    -0.000961
  5 H s       :    -0.004004  s :    -0.004004
  6 F s       :     0.000182  s :     0.000182
      pz      :     0.023469  p :     0.042049
      px      :     0.000414
      py      :     0.018166
      dz2     :     0.000018  d :    -0.000139
      dxz     :    -0.000099
      dyz     :     0.000014
      dx2y2   :    -0.000010
      dxy     :    -0.000062
  7 H s       :     0.104320  s :     0.104320


                     *******************************
                     * LOEWDIN POPULATION ANALYSIS *
                     *******************************

-----------------------------------------
LOEWDIN ATOMIC CHARGES AND SPIN DENSITIES
-----------------------------------------
   0 C :   -0.016229    0.382095
   1 H :    0.144302   -0.002802
   2 C :    0.046501   -0.062060
   3 F :   -0.185258   -0.017027
   4 O :   -0.138179    0.564778
   5 H :    0.150421    0.000179
   6 F :   -0.154443    0.052635
   7 H :    0.152885    0.082202

--------------------------------------------------
LOEWDIN REDUCED ORBITAL CHARGES AND SPIN DENSITIES
--------------------------------------------------
CHARGE
  0 C s       :     3.049750  s :     3.049750
      pz      :     1.032763  p :     2.822426
      px      :     0.728321
      py      :     1.061342
      dz2     :     0.025585  d :     0.144053
      dxz     :     0.032706
      dyz     :     0.009912
      dx2y2   :     0.044969
      dxy     :     0.030880
  1 H s       :     0.855698  s :     0.855698
  2 C s       :     2.941247  s :     2.941247
      pz      :     0.803954  p :     2.717531
      px      :     0.969613
      py      :     0.943964
      dz2     :     0.059004  d :     0.294721
      dxz     :     0.083279
      dyz     :     0.032222
      dx2y2   :     0.062656
      dxy     :     0.057560
  3 F s       :     3.769296  s :     3.769296
      pz      :     1.604299  p :     5.365780
      px      :     1.876658
      py      :     1.884823
      dz2     :     0.015518  d :     0.050182
      dxz     :     0.011692
      dyz     :     0.011917
      dx2y2   :     0.005525
      dxy     :     0.005530
  4 O s       :     3.579864  s :     3.579864
      pz      :     1.641202  p :     4.481809
      px      :     1.480922
      py      :     1.359684
      dz2     :     0.011281  d :     0.076505
      dxz     :     0.016596
      dyz     :     0.004056
      dx2y2   :     0.024590
      dxy     :     0.019983
  5 H s       :     0.849579  s :     0.849579
  6 F s       :     3.765659  s :     3.765659
      pz      :     1.910544  p :     5.337102
      px      :     1.509427
      py      :     1.917131
      dz2     :     0.007954  d :     0.051682
      dxz     :     0.011692
      dyz     :     0.003679
      dx2y2   :     0.016594
      dxy     :     0.011763
  7 H s       :     0.847115  s :     0.847115

SPIN
  0 C s       :     0.051814  s :     0.051814
      pz      :     0.169527  p :     0.327836
      px      :     0.016432
      py      :     0.141877
      dz2     :     0.000201  d :     0.002445
      dxz     :     0.000842
      dyz     :     0.000353
      dx2y2   :     0.000101
      dxy     :     0.000948
  1 H s       :    -0.002802  s :    -0.002802
  2 C s       :    -0.021702  s :    -0.021702
      pz      :    -0.032068  p :    -0.069839
      px      :    -0.023191
      py      :    -0.014580
      dz2     :     0.001017  d :     0.029482
      dxz     :     0.002940
      dyz     :     0.003893
      dx2y2   :     0.001670
      dxy     :     0.019961
  3 F s       :    -0.001291  s :    -0.001291
      pz      :    -0.009627  p :    -0.015109
      px      :    -0.002073
      py      :    -0.003409
      dz2     :    -0.000372  d :    -0.000627
      dxz     :    -0.000126
      dyz     :     0.000069
      dx2y2   :    -0.000010
      dxy     :    -0.000188
  4 O s       :     0.011376  s :     0.011376
      pz      :     0.102489  p :     0.552779
      px      :     0.001759
      py      :     0.448532
      dz2     :     0.000277  d :     0.000622
      dxz     :    -0.001007
      dyz     :     0.001095
      dx2y2   :     0.001082
      dxy     :    -0.000824
  5 H s       :     0.000179  s :     0.000179
  6 F s       :     0.001448  s :     0.001448
      pz      :     0.025926  p :     0.048310
      px      :     0.002097
      py      :     0.020287
      dz2     :     0.000074  d :     0.002878
      dxz     :     0.001390
      dyz     :     0.000010
      dx2y2   :     0.000241
      dxy     :     0.001163
  7 H s       :     0.082202  s :     0.082202


                      *****************************
                      * MAYER POPULATION ANALYSIS *
                      *****************************

  NA   - Mulliken gross atomic population
  ZA   - Total nuclear charge
  QA   - Mulliken gross atomic charge
  VA   - Mayer's total valence
  BVA  - Mayer's bonded valence
  FA   - Mayer's free valence

  ATOM       NA         ZA         QA         VA         BVA        FA
  0 C      5.9497     6.0000     0.0503     3.7125     3.3433     0.3691
  1 H      0.8033     1.0000     0.1967     0.9162     0.8819     0.0343
  2 C      5.6379     6.0000     0.3621     3.9531     3.8005     0.1526
  3 F      9.3582     9.0000    -0.3582     1.1900     0.8814     0.3087
  4 O      8.3285     8.0000    -0.3285     2.2697     1.7454     0.5242
  5 H      0.7930     1.0000     0.2070     0.9175     0.8840     0.0335
  6 F      9.3255     9.0000    -0.3255     1.2406     0.9296     0.3110
  7 H      0.8038     1.0000     0.1962     0.9255     0.8842     0.0413

  Mayer bond orders larger than 0.100000
B(  0-C ,  1-H ) :   0.8817 B(  0-C ,  2-C ) :   0.5567 B(  0-C ,  4-O ) :   0.1099 
B(  0-C ,  5-H ) :   0.8856 B(  0-C ,  6-F ) :   0.8747 B(  2-C ,  3-F ) :   0.8203 
B(  2-C ,  4-O ) :   1.5563 B(  2-C ,  7-H ) :   0.8407 


----------------------------------
MP2 DERIVATIVE INTEGRAL GENERATION
----------------------------------


Input Wavefunction Amplitudes       ... input.mp2tbb.tmp
Input Correlated Electron Density   ... input.pmp2re
Input Energy Weighted Density       ... input.wmp2.tmp
Input SCF Electron Density          ... input.scfp

One-Electron Terms    ...
                        ... One-Electron Terms done
Prescreening matrices              ... done

Batch handling in the gradient evaluation:
Memory available                      ...  256.0 MB
Memory per occupied orbital in Q2     ...    1.8 MB
Memory per occupied orbital in Q3     ...    0.0 MB
Total memory requirement per |i>      ...    1.8 MB
Max. Number of orbitals possible      ...    140
Number of orbitals treated per batch  ...     41
Number of batches to be done          ...      1
Batch   0: i=    0 ...    40

---------------------------------------
MP2 TOTAL ENERGY:     -351.837500916 Eh
---------------------------------------

The final MP2 gradient
  0:  -0.00940640  -0.01308646   0.01258198
  1:   0.00287819  -0.01111387   0.00672300
  2:  -0.02287206  -0.00384430   0.01114051
  3:  -0.01799924   0.01319754  -0.00871855
  4:   0.04576681   0.02007180  -0.02488470
  5:   0.00308617  -0.00660164   0.01280646
  6:   0.02391021  -0.00565952   0.00714051
  7:  -0.02536368   0.00703646  -0.01678922

-----------------------------------
NORM OF THE MP2 GRADIENT:  0.082429
-----------------------------------

Maximum memory used throughout the entire MP2-calculation: 152.6 MB

-------------------------   --------------------
FINAL SINGLE POINT ENERGY      -351.837500915611
-------------------------   --------------------

------------------------------------------------------------------------------
                         ORCA GEOMETRY RELAXATION STEP
------------------------------------------------------------------------------

Reading the OPT-File                    .... done
Getting information on internals        .... done
Copying old internal coords+grads       .... done
Making the new internal coordinates     .... (new redundants).... done
Validating the new internal coordinates .... (new redundants).... done
Calculating the B-matrix                .... done
Calculating the G,G- and P matrices     .... done
Transforming gradient to internals      .... done
Projecting the internal gradient        .... done
Number of atoms                         ....   8
Number of internal coordinates          ....  31
Current Energy                          ....  -351.837500916 Eh
Current gradient norm                   ....     0.082428658 Eh/bohr
Maximum allowed component of the step   ....  0.300
Current trust radius                    ....  0.300
Evaluating the initial hessian          ....  (Almloef) done
Projecting the Hessian                  .... done
Diagonalizing the Hessian               .... done
Dimension of the hessian                ....  31
Lowest eigenvalues of the Hessian:
  0.001767640  0.016794808  0.061100388  0.074995005  0.106043969
Hessian has   0 negative eigenvalues
Taking P-RFO step
Searching for lambda that maximizes along the lowest mode
TS mode is mode number   0 with eigenvalue   0.00176764 and components:
   1.    0.00000000
   2.    0.00000000
   3.    0.00000000
   4.    0.00000000
   5.    0.00000000
   6.    0.00000000
   7.   -0.00000000
   8.   -0.00000000
   9.    0.00000000
  10.    0.00000000
  11.   -0.00000000
  12.   -0.00000000
  13.    0.00000000
  14.   -0.00000000
  15.   -0.00000000
  16.    0.00000000
  17.   -0.00000000
  18.   -0.00000000
  19.    0.00000000
  20.   -0.00000000
  21.    0.00000000
  22.   -0.00000000
  23.   -0.33333333
  24.   -0.33333333
  25.   -0.33333333
  26.   -0.33333333
  27.   -0.33333333
  28.   -0.33333333
  29.   -0.33333333
  30.   -0.33333333
  31.   -0.33333333

Lambda that maximizes along the TS mode:       0.00177436
Searching for lambda that minimizes along all other modes
In cycle   1: lambdaN =  -0.01787777   step =   0.01787777
In cycle   2: lambdaN =  -0.03415145   step =   0.01627368
In cycle   3: lambdaN =  -0.03696638   step =   0.00281493
In cycle   4: lambdaN =  -0.03700488   step =   0.00003850
In cycle   5: lambdaN =  -0.03700488   step =   0.00000001
Lambda that minimizes along all other modes:  -0.03700488
Calculated stepsize too large (   1.0822 >    0.3000). Scaled with    0.2772.
The final length of the internal step   ....       0.3000
Converting the step to cartesian space:
 Initial RMS(Int)=    0.0538815906
Transforming coordinates:
 Iter   0:  RMS(Cart)=    0.0592303879 RMS(Int)=    1.1144874335
 Iter   1:  RMS(Cart)=    0.0011239970 RMS(Int)=    0.0010384162
 Iter   2:  RMS(Cart)=    0.0000477076 RMS(Int)=    0.0000423681
 Iter   3:  RMS(Cart)=    0.0000022798 RMS(Int)=    0.0000021159
 Iter   4:  RMS(Cart)=    0.0000000944 RMS(Int)=    0.0000000825
done
Storing new coordinates                 .... done

                                .--------------------.
          ----------------------|Geometry convergence|-------------------------
          Item                value                   Tolerance       Converged
          ---------------------------------------------------------------------
          RMS gradient        0.0178186749            0.0000080000      NO
          MAX gradient        0.0449702569            0.0000300000      NO
          RMS step            0.0538815906            0.0001000000      NO
          MAX step            0.0831643526            0.0002000000      NO
          ........................................................
          Max(Bonds)      0.0440      Max(Angles)    1.62
          Max(Dihed)        4.76      Max(Improp)    0.00
          ---------------------------------------------------------------------

The optimization has not yet converged - more geometry cycles are needed


[...]
AutoCI program output          ... >input.lastautoci

	<< Calculating on displaced geometry   1 (of  48) >>
	<< Calculating on displaced geometry   2 (of  48) >>
	<< Calculating on displaced geometry   3 (of  48) >>
	<< Calculating on displaced geometry   4 (of  48) >>
	<< Calculating on displaced geometry   5 (of  48) >>
	<< Calculating on displaced geometry   6 (of  48) >>
	<< Calculating on displaced geometry   7 (of  48) >>
	<< Calculating on displaced geometry   8 (of  48) >>
	<< Calculating on displaced geometry   9 (of  48) >>
	<< Calculating on displaced geometry  10 (of  48) >>
	<< Calculating on displaced geometry  11 (of  48) >>
	<< Calculating on displaced geometry  12 (of  48) >>
	<< Calculating on displaced geometry  13 (of  48) >>
	<< Calculating on displaced geometry  14 (of  48) >>
	<< Calculating on displaced geometry  15 (of  48) >>
	<< Calculating on displaced geometry  16 (of  48) >>
	<< Calculating on displaced geometry  17 (of  48) >>
	<< Calculating on displaced geometry  18 (of  48) >>
	<< Calculating on displaced geometry  19 (of  48) >>
	<< Calculating on displaced geometry  20 (of  48) >>
	<< Calculating on displaced geometry  21 (of  48) >>
	<< Calculating on displaced geometry  22 (of  48) >>
	<< Calculating on displaced geometry  23 (of  48) >>
	<< Calculating on displaced geometry  24 (of  48) >>
	<< Calculating on displaced geometry  25 (of  48) >>
	<< Calculating on displaced geometry  26 (of  48) >>
	<< Calculating on displaced geometry  27 (of  48) >>
	<< Calculating on displaced geometry  28 (of  48) >>
	<< Calculating on displaced geometry  29 (of  48) >>
	<< Calculating on displaced geometry  30 (of  48) >>
	<< Calculating on displaced geometry  31 (of  48) >>
	<< Calculating on displaced geometry  32 (of  48) >>
	<< Calculating on displaced geometry  33 (of  48) >>
	<< Calculating on displaced geometry  34 (of  48) >>
	<< Calculating on displaced geometry  35 (of  48) >>
	<< Calculating on displaced geometry  36 (of  48) >>
	<< Calculating on displaced geometry  37 (of  48) >>
	<< Calculating on displaced geometry  38 (of  48) >>
	<< Calculating on displaced geometry  39 (of  48) >>
	<< Calculating on displaced geometry  40 (of  48) >>
	<< Calculating on displaced geometry  41 (of  48) >>
	<< Calculating on displaced geometry  42 (of  48) >>
	<< Calculating on displaced geometry  43 (of  48) >>
	<< Calculating on displaced geometry  44 (of  48) >>
	<< Calculating on displaced geometry  45 (of  48) >>
	<< Calculating on displaced geometry  46 (of  48) >>
	<< Calculating on displaced geometry  47 (of  48) >>
	<< Calculating on displaced geometry  48 (of  48) >>

-----------------------
VIBRATIONAL FREQUENCIES
-----------------------

Scaling factor for frequencies =  1.000000000 (already applied!)

   0:         0.00 cm**-1
   1:         0.00 cm**-1
   2:         0.00 cm**-1
   3:         0.00 cm**-1
   4:         0.00 cm**-1
   5:         0.00 cm**-1
   6:      -709.79 cm**-1 ***imaginary mode***
   7:       110.76 cm**-1
   8:       199.76 cm**-1
   9:       375.03 cm**-1
  10:       405.65 cm**-1
  11:       631.78 cm**-1
  12:       783.20 cm**-1
  13:       965.52 cm**-1
  14:      1061.32 cm**-1
  15:      1178.37 cm**-1
  16:      1230.22 cm**-1
  17:      1242.68 cm**-1
  18:      1390.74 cm**-1
  19:      1547.21 cm**-1
  20:      1700.69 cm**-1
  21:      3063.46 cm**-1
  22:      3206.59 cm**-1
  23:      3348.53 cm**-1


------------
NORMAL MODES
------------

These modes are the cartesian displacements weighted by the diagonal matrix
M(i,i)=1/sqrt(m[i]) where m[i] is the mass of the displaced atom
Thus, these vectors are normalized but *not* orthogonal

                  0          1          2          3          4          5    
      0       0.000000   0.000000   0.000000   0.000000   0.000000   0.000000
      1       0.000000   0.000000   0.000000   0.000000   0.000000   0.000000
      2       0.000000   0.000000   0.000000   0.000000   0.000000   0.000000
      3       0.000000   0.000000   0.000000   0.000000   0.000000   0.000000
      4       0.000000   0.000000   0.000000   0.000000   0.000000   0.000000
      5       0.000000   0.000000   0.000000   0.000000   0.000000   0.000000
      6       0.000000   0.000000   0.000000   0.000000   0.000000   0.000000
      7       0.000000   0.000000   0.000000   0.000000   0.000000   0.000000
      8       0.000000   0.000000   0.000000   0.000000   0.000000   0.000000
      9       0.000000   0.000000   0.000000   0.000000   0.000000   0.000000
     10       0.000000   0.000000   0.000000   0.000000   0.000000   0.000000
     11       0.000000   0.000000   0.000000   0.000000   0.000000   0.000000
     12       0.000000   0.000000   0.000000   0.000000   0.000000   0.000000
     13       0.000000   0.000000   0.000000   0.000000   0.000000   0.000000
     14       0.000000   0.000000   0.000000   0.000000   0.000000   0.000000
     15       0.000000   0.000000   0.000000   0.000000   0.000000   0.000000
     16       0.000000   0.000000   0.000000   0.000000   0.000000   0.000000
     17       0.000000   0.000000   0.000000   0.000000   0.000000   0.000000
     18       0.000000   0.000000   0.000000   0.000000   0.000000   0.000000
     19       0.000000   0.000000   0.000000   0.000000   0.000000   0.000000
     20       0.000000   0.000000   0.000000   0.000000   0.000000   0.000000
     21       0.000000   0.000000   0.000000   0.000000   0.000000   0.000000
     22       0.000000   0.000000   0.000000   0.000000   0.000000   0.000000
     23       0.000000   0.000000   0.000000   0.000000   0.000000   0.000000
                  6          7          8          9         10         11    
      0       0.262607   0.025282  -0.019431   0.113469   0.111907  -0.021005
      1      -0.359769  -0.184607  -0.227511   0.164312  -0.025658   0.009374
      2       0.375123  -0.145443  -0.078933  -0.284085   0.129712   0.080690
      3       0.067838  -0.282748  -0.047599   0.010611   0.204183   0.063682
      4       0.068694  -0.511669  -0.598658  -0.088633   0.150635  -0.458326
      5       0.084661  -0.145783   0.066173  -0.221279   0.100969   0.321171
      6      -0.407077   0.059872  -0.018403  -0.136309  -0.014616   0.219255
      7       0.391903  -0.035350  -0.019730   0.099338  -0.236308   0.214399
      8      -0.434718  -0.028501   0.129616   0.018275   0.154082   0.091921
      9      -0.009955  -0.142589   0.123555  -0.011928  -0.112330  -0.310867
     10      -0.005004  -0.045641  -0.176099  -0.077523   0.082917   0.000133
     11       0.048732  -0.148276   0.269196   0.158146  -0.041754   0.140142
     12      -0.000144   0.057602  -0.058178  -0.159087  -0.130109   0.231822
     13       0.039009   0.121420   0.200127   0.025669   0.155534  -0.173801
     14      -0.067907   0.081474  -0.085792  -0.080333  -0.273429  -0.265241
     15       0.035762   0.326738   0.194798   0.076810   0.151057  -0.072632
     16      -0.060897  -0.172451  -0.201638   0.300787  -0.186152   0.215167
     17      -0.084888  -0.484178  -0.361370  -0.587454   0.477076  -0.372538
     18       0.085394   0.026456  -0.062153   0.173020   0.138403  -0.014662
     19      -0.035756   0.126403   0.213103  -0.138260  -0.025489   0.000890
     20       0.041623   0.224645  -0.226191   0.128525   0.037412  -0.024889
     21       0.198331   0.215872   0.069753  -0.326373   0.059162   0.102492
     22      -0.241640  -0.144271  -0.127514   0.305777  -0.393976   0.316042
     23       0.085241  -0.029890   0.242427  -0.151853   0.462067   0.032303
                 12         13         14         15         16         17    
      0       0.000413  -0.025990   0.109907  -0.344272   0.055776  -0.001898
      1      -0.060644  -0.076360  -0.031845   0.011761   0.071238  -0.088366
      2      -0.122878   0.002407  -0.010135  -0.022822  -0.098690  -0.053764
      3      -0.149950   0.101182   0.003022  -0.147709   0.550151   0.587830
      4       0.615043  -0.110399   0.436566  -0.260884  -0.377791   0.147612
      5      -0.485190   0.081166  -0.264873   0.194471   0.320942   0.092677
      6       0.016839   0.028683  -0.071462  -0.018355  -0.013342   0.004686
      7       0.025819   0.079148   0.238275   0.127385   0.050803  -0.029057
      8      -0.029782   0.055398   0.330050  -0.020023  -0.046506  -0.001490
      9      -0.045503   0.010489   0.059547   0.020417   0.002145  -0.002687
     10       0.011520  -0.017497  -0.120993  -0.039293  -0.010454   0.009232
     11       0.084525  -0.037324  -0.187679  -0.031149   0.003045   0.006542
     12       0.049581  -0.039756  -0.015563  -0.027201  -0.003311   0.002321
     13      -0.019094   0.014021  -0.055587  -0.036177  -0.015088   0.005522
     14      -0.005572  -0.017075  -0.034148   0.015728   0.007878  -0.001744
     15       0.046185   0.157662  -0.157008  -0.302606   0.215010  -0.746628
     16      -0.307331  -0.341659   0.149730  -0.135347  -0.207377   0.187215
     17       0.443152   0.454579  -0.164776   0.270102   0.408422  -0.021614
     18      -0.006834   0.026799  -0.071198   0.241053  -0.075959   0.009375
     19       0.015301  -0.000481   0.008291   0.019881  -0.011392   0.040323
     20       0.011594   0.009460   0.003842  -0.009217   0.027656   0.032230
     21       0.097657  -0.362699   0.162482   0.275008   0.172954  -0.037307
     22      -0.095190   0.535123  -0.039650  -0.321723  -0.217835   0.042718
     23       0.137948  -0.428362   0.624482   0.557102   0.297088  -0.115724
                 18         19         20         21         22         23    
      0      -0.007399  -0.102162   0.117904  -0.001700   0.043819   0.000399
      1      -0.000935  -0.024538  -0.072019   0.000790   0.026382  -0.075321
      2      -0.004993   0.021653   0.075715   0.000327  -0.029664  -0.071768
      3       0.018482   0.543201  -0.133390   0.003363  -0.268627  -0.251410
      4       0.008911   0.452465   0.134023  -0.002370   0.278378   0.252838
      5       0.002241   0.087996  -0.139166   0.002813   0.609635   0.585377
      6      -0.013161   0.014201   0.527507  -0.046949   0.000568  -0.000205
      7       0.026637   0.001819   0.133049  -0.064392   0.001339  -0.001342
      8       0.059566  -0.006486  -0.189920  -0.026198  -0.000596  -0.000749
      9       0.007978  -0.000257  -0.008934   0.000275  -0.000073  -0.000120
     10       0.019740  -0.000686  -0.013634  -0.000536  -0.000037   0.000240
     11       0.010160  -0.000373   0.015474  -0.000392   0.000298   0.000302
     12      -0.049629  -0.007203  -0.438956   0.002124  -0.000259  -0.000054
     13      -0.026510  -0.000543  -0.055207  -0.000047  -0.000291   0.000264
     14      -0.015256   0.002198   0.054986   0.000607   0.000277   0.000245
     15       0.049850   0.535729  -0.162532  -0.005815  -0.236272   0.244567
     16      -0.030734  -0.086826   0.137420  -0.016876  -0.594576   0.628437
     17       0.014387  -0.428877  -0.140333  -0.004271  -0.256364   0.253900
     18       0.004103   0.006240  -0.027375   0.000453  -0.000769   0.000080
     19      -0.001349  -0.004566   0.002753   0.000352   0.000068   0.000682
     20       0.000882   0.005285  -0.001287  -0.000141  -0.000026   0.000650
     21       0.736688  -0.029252   0.256867   0.534715  -0.004032   0.006146
     22      -0.210279   0.012693   0.082664   0.781337  -0.010084   0.010647
     23      -0.632870   0.032685   0.500196   0.310136  -0.002229   0.002982


-----------
IR SPECTRUM
-----------

 Mode   freq       eps      Int      T**2         TX        TY        TZ
       cm**-1   L/(mol*cm) km/mol    a.u.
----------------------------------------------------------------------------
  7:    110.76   0.002072   10.47  0.005837  ( 0.012055 -0.061286 -0.043999)
  8:    199.76   0.001622    8.20  0.002534  ( 0.007281 -0.047188  0.015954)
  9:    375.03   0.001359    6.87  0.001131  (-0.009160  0.026059 -0.019175)
 10:    405.65   0.006270   31.69  0.004824  ( 0.003513 -0.037559  0.058316)
 11:    631.78   0.001902    9.61  0.000940  ( 0.012630  0.027921  0.000628)
 12:    783.20   0.004710   23.80  0.001877  ( 0.027847 -0.003905 -0.032952)
 13:    965.52   0.016204   81.89  0.005237  (-0.065883  0.021742  0.020588)
 14:   1061.32   0.035446  179.13  0.010422  ( 0.014837  0.024001  0.098113)
 15:   1178.37   0.035686  180.34  0.009451  (-0.090241  0.032035 -0.016762)
 16:   1230.22   0.003734   18.87  0.000947  ( 0.013359  0.015614 -0.022912)
 17:   1242.68   0.001755    8.87  0.000441  ( 0.001043 -0.018222 -0.010375)
 18:   1390.74   0.002181   11.02  0.000489  ( 0.006878 -0.005558  0.020280)
 19:   1547.21   0.001403    7.09  0.000283  (-0.013679  0.004488 -0.008705)
 20:   1700.69   0.027313  138.03  0.005012  ( 0.063487  0.002711 -0.031205)
 21:   3063.46   0.004926   24.90  0.000502  (-0.001582 -0.020931 -0.007824)
 22:   3206.59   0.001008    5.09  0.000098  ( 0.009614 -0.002336 -0.000458)
 23:   3348.53   0.000601    3.04  0.000056  (-0.000128 -0.004123 -0.006244)

* The epsilon (eps) is given for a Dirac delta lineshape.
** The dipole moment derivative (T) already includes vibrational overlap.

The first frequency considered to be a vibration is 7
The total number of vibrations considered is 17


--------------------------
THERMOCHEMISTRY AT 298.15K
--------------------------

Temperature         ... 298.15 K
Pressure            ... 1.00 atm
Total Mass          ... 81.04 AMU

Throughout the following assumptions are being made:
  (1) The electronic state is orbitally nondegenerate
      but the spin degeneracy is treated
  (2) There are no thermally accessible electronically excited states
  (3) Hindered rotations indicated by low frequency modes are not
      treated as such but are treated as vibrations and this may
      cause some error
  (4) All equations used are the standard statistical mechanics
      equations for an ideal gas
  (5) All vibrations are strictly harmonic

freq.     110.76  E(vib)   ...       0.45 
freq.     199.76  E(vib)   ...       0.35 
freq.     375.03  E(vib)   ...       0.21 
freq.     405.65  E(vib)   ...       0.19 
freq.     631.78  E(vib)   ...       0.09 
freq.     783.20  E(vib)   ...       0.05 
freq.     965.52  E(vib)   ...       0.03 
freq.    1061.32  E(vib)   ...       0.02 
freq.    1178.37  E(vib)   ...       0.01 
freq.    1230.22  E(vib)   ...       0.01 
freq.    1242.68  E(vib)   ...       0.01 
freq.    1390.74  E(vib)   ...       0.00 
freq.    1547.21  E(vib)   ...       0.00 
freq.    1700.69  E(vib)   ...       0.00 
freq.    3063.46  E(vib)   ...       0.00 
freq.    3206.59  E(vib)   ...       0.00 
freq.    3348.53  E(vib)   ...       0.00 

------------
INNER ENERGY
------------

The inner energy is: U= E(el) + E(ZPE) + E(vib) + E(rot) + E(trans)
    E(el)   - is the total energy from the electronic structure calculation
              = E(kin-el) + E(nuc-el) + E(el-el) + E(nuc-nuc)
    E(ZPE)  - the the zero temperature vibrational energy from the frequency calculation
    E(vib)  - the the finite temperature correction to E(ZPE) due to population
              of excited vibrational states
    E(rot)  - is the rotational thermal energy
    E(trans)- is the translational thermal energy

Summary of contributions to the inner energy U:
Electronic energy                ...   -351.87339639 Eh
Zero point energy                ...      0.05112554 Eh      32.08 kcal/mol
Thermal vibrational correction   ...      0.00227270 Eh       1.43 kcal/mol
Thermal rotational correction    ...      0.00141627 Eh       0.89 kcal/mol
Thermal translational correction ...      0.00141627 Eh       0.89 kcal/mol
-----------------------------------------------------------------------
Total thermal energy                   -351.81716562 Eh


Summary of corrections to the electronic energy:
(perhaps to be used in another calculation)
Total thermal correction                  0.00510524 Eh       3.20 kcal/mol
Non-thermal (ZPE) correction              0.05112554 Eh      32.08 kcal/mol
-----------------------------------------------------------------------
Total correction                          0.05623078 Eh      35.29 kcal/mol


--------
ENTHALPY
--------

The enthalpy is H = U + kB*T
                kB is Boltzmann's constant
Total free energy                 ...   -351.81716562 Eh 
Thermal Enthalpy correction       ...      0.00094421 Eh       0.59 kcal/mol
-----------------------------------------------------------------------
Total Enthalpy                    ...   -351.81622141 Eh


Note: Only C1 symmetry has been detected, increase convergence thresholds 
      if your molecule has a higher symmetry. Symmetry factor of 1.0 is   
      used for the rotational entropy correction. 
 

Note: Rotational entropy computed according to Herzberg 
Infrared and Raman Spectra, Chapter V,1, Van Nostrand Reinhold, 1945 
Point Group:  C1, Symmetry Number:   1  
Rotational constants in cm-1:     0.292133     0.123009     0.093947 

Vibrational entropy computed according to the QRRHO of S. Grimme
Chem.Eur.J. 2012 18 9955


-------
ENTROPY
-------

The entropy contributions are T*S = T*(S(el)+S(vib)+S(rot)+S(trans))
     S(el)   - electronic entropy
     S(vib)  - vibrational entropy
     S(rot)  - rotational entropy
     S(trans)- translational entropy
The entropies will be listed as multiplied by the temperature to get
units of energy

Electronic entropy                ...      0.00065446 Eh      0.41 kcal/mol
Vibrational entropy               ...      0.00387165 Eh      2.43 kcal/mol
Rotational entropy                ...      0.01219751 Eh      7.65 kcal/mol
Translational entropy             ...      0.01857352 Eh     11.66 kcal/mol
-----------------------------------------------------------------------
Final entropy term                ...      0.03529714 Eh     22.15 kcal/mol

In case the symmetry of your molecule has not been determined correctly
or in case you have a reason to use a different symmetry number we print 
out the resulting rotational entropy values for sn=1,12 :
 --------------------------------------------------------
|  sn= 1 | S(rot)=       0.01219751 Eh      7.65 kcal/mol|
|  sn= 2 | S(rot)=       0.01154305 Eh      7.24 kcal/mol|
|  sn= 3 | S(rot)=       0.01116022 Eh      7.00 kcal/mol|
|  sn= 4 | S(rot)=       0.01088860 Eh      6.83 kcal/mol|
|  sn= 5 | S(rot)=       0.01067791 Eh      6.70 kcal/mol|
|  sn= 6 | S(rot)=       0.01050577 Eh      6.59 kcal/mol|
|  sn= 7 | S(rot)=       0.01036022 Eh      6.50 kcal/mol|
|  sn= 8 | S(rot)=       0.01023414 Eh      6.42 kcal/mol|
|  sn= 9 | S(rot)=       0.01012293 Eh      6.35 kcal/mol|
|  sn=10 | S(rot)=       0.01002345 Eh      6.29 kcal/mol|
|  sn=11 | S(rot)=       0.00993346 Eh      6.23 kcal/mol|
|  sn=12 | S(rot)=       0.00985131 Eh      6.18 kcal/mol|
 --------------------------------------------------------


-------------------
GIBBS FREE ENERGY
-------------------

The Gibbs free energy is G = H - T*S

Total enthalpy                    ...   -351.81622141 Eh 
Total entropy correction          ...     -0.03529714 Eh    -22.15 kcal/mol
-----------------------------------------------------------------------
Final Gibbs free energy         ...   -351.85151855 Eh

For completeness - the Gibbs free energy minus the electronic energy
G-E(el)                           ...      0.02187785 Eh     13.73 kcal/mol



Timings for individual modules:

Sum of individual times         ...     3216.972 sec (=  53.616 min)
GTO integral calculation        ...       23.999 sec (=   0.400 min)   0.7 %
SCF iterations                  ...      581.826 sec (=   9.697 min)  18.1 %
MP2 module                      ...      822.013 sec (=  13.700 min)  25.6 %
Geometry relaxation             ...        7.923 sec (=   0.132 min)   0.2 %
Numerical frequency calculation ...     1781.209 sec (=  29.687 min)  55.4 %
                             ****ORCA TERMINATED NORMALLY****
TOTAL RUN TIME: 0 days 0 hours 54 minutes 36 seconds 686 msec
