
                                 *****************
                                 * O   R   C   A *
                                 *****************

                                            #,                                       
                                            ###                                      
                                            ####                                     
                                            #####                                    
                                            ######                                   
                                           ########,                                 
                                     ,,################,,,,,                         
                               ,,#################################,,                 
                          ,,##########################################,,             
                       ,#########################################, ''#####,          
                    ,#############################################,,   '####,        
                  ,##################################################,,,,####,       
                ,###########''''           ''''###############################       
              ,#####''   ,,,,##########,,,,          '''####'''          '####       
            ,##' ,,,,###########################,,,                        '##       
           ' ,,###''''                  '''############,,,                           
         ,,##''                                '''############,,,,        ,,,,,,###''
      ,#''                                            '''#######################'''  
     '                                                          ''''####''''         
             ,#######,   #######,   ,#######,      ##                                
            ,#'     '#,  ##    ##  ,#'     '#,    #''#        ######   ,####,        
            ##       ##  ##   ,#'  ##            #'  '#       #        #'  '#        
            ##       ##  #######   ##           ,######,      #####,   #    #        
            '#,     ,#'  ##    ##  '#,     ,#' ,#      #,         ##   #,  ,#        
             '#######'   ##     ##  '#######'  #'      '#     #####' # '####'        



                  #######################################################
                  #                        -***-                        #
                  #          Department of theory and spectroscopy      #
                  #    Directorship and core code : Frank Neese         #
                  #        Max Planck Institute fuer Kohlenforschung    #
                  #                Kaiser Wilhelm Platz 1               #
                  #                 D-45470 Muelheim/Ruhr               #
                  #                      Germany                        #
                  #                                                     #
                  #                  All rights reserved                #
                  #                        -***-                        #
                  #######################################################


                         Program Version 5.0.1 -  RELEASE  -


 With contributions from (in alphabetic order):
   Daniel Aravena         : Magnetic Suceptibility
   Michael Atanasov       : Ab Initio Ligand Field Theory (pilot matlab implementation)
   Alexander A. Auer      : GIAO ZORA, VPT2 properties, NMR spectrum
   Ute Becker             : Parallelization
   Giovanni Bistoni       : ED, misc. LED, open-shell LED, HFLD
   Martin Brehm           : Molecular dynamics
   Dmytro Bykov           : SCF Hessian
   Vijay G. Chilkuri      : MRCI spin determinant printing, contributions to CSF-ICE
   Dipayan Datta          : RHF DLPNO-CCSD density
   Achintya Kumar Dutta   : EOM-CC, STEOM-CC
   Dmitry Ganyushin       : Spin-Orbit,Spin-Spin,Magnetic field MRCI
   Miquel Garcia          : C-PCM and meta-GGA Hessian, CC/C-PCM, Gaussian charge scheme
   Yang Guo               : DLPNO-NEVPT2, F12-NEVPT2, CIM, IAO-localization
   Andreas Hansen         : Spin unrestricted coupled pair/coupled cluster methods
   Benjamin Helmich-Paris : MC-RPA, TRAH-SCF, COSX integrals
   Lee Huntington         : MR-EOM, pCC
   Robert Izsak           : Overlap fitted RIJCOSX, COSX-SCS-MP3, EOM
   Marcus Kettner         : VPT2
   Christian Kollmar      : KDIIS, OOCD, Brueckner-CCSD(T), CCSD density, CASPT2, CASPT2-K
   Simone Kossmann        : Meta GGA functionals, TD-DFT gradient, OOMP2, MP2 Hessian
   Martin Krupicka        : Initial AUTO-CI
   Lucas Lang             : DCDCAS
   Marvin Lechner         : AUTO-CI (C++ implementation), FIC-MRCC
   Dagmar Lenk            : GEPOL surface, SMD
   Dimitrios Liakos       : Extrapolation schemes; Compound Job, initial MDCI parallelization
   Dimitrios Manganas     : Further ROCIS development; embedding schemes
   Dimitrios Pantazis     : SARC Basis sets
   Anastasios Papadopoulos: AUTO-CI, single reference methods and gradients
   Taras Petrenko         : DFT Hessian,TD-DFT gradient, ASA, ECA, R-Raman, ABS, FL, XAS/XES, NRVS
   Peter Pinski           : DLPNO-MP2, DLPNO-MP2 Gradient
   Christoph Reimann      : Effective Core Potentials
   Marius Retegan         : Local ZFS, SOC
   Christoph Riplinger    : Optimizer, TS searches, QM/MM, DLPNO-CCSD(T), (RO)-DLPNO pert. Triples
   Tobias Risthaus        : Range-separated hybrids, TD-DFT gradient, RPA, STAB
   Michael Roemelt        : Original ROCIS implementation
   Masaaki Saitow         : Open-shell DLPNO-CCSD energy and density
   Barbara Sandhoefer     : DKH picture change effects
   Avijit Sen             : IP-ROCIS
   Kantharuban Sivalingam : CASSCF convergence, NEVPT2, FIC-MRCI
   Bernardo de Souza      : ESD, SOC TD-DFT
   Georgi Stoychev        : AutoAux, RI-MP2 NMR, DLPNO-MP2 response
   Willem Van den Heuvel  : Paramagnetic NMR
   Boris Wezisla          : Elementary symmetry handling
   Frank Wennmohs         : Technical directorship


 We gratefully acknowledge several colleagues who have allowed us to
 interface, adapt or use parts of their codes:
   Stefan Grimme, W. Hujo, H. Kruse, P. Pracht,  : VdW corrections, initial TS optimization,
                  C. Bannwarth, S. Ehlert          DFT functionals, gCP, sTDA/sTD-DF
   Ed Valeev, F. Pavosevic, A. Kumar             : LibInt (2-el integral package), F12 methods
   Garnet Chan, S. Sharma, J. Yang, R. Olivares  : DMRG
   Ulf Ekstrom                                   : XCFun DFT Library
   Mihaly Kallay                                 : mrcc  (arbitrary order and MRCC methods)
   Jiri Pittner, Ondrej Demel                    : Mk-CCSD
   Frank Weinhold                                : gennbo (NPA and NBO analysis)
   Christopher J. Cramer and Donald G. Truhlar   : smd solvation model
   Lars Goerigk                                  : TD-DFT with DH, B97 family of functionals
   V. Asgeirsson, H. Jonsson                     : NEB implementation
   FAccTs GmbH                                   : IRC, NEB, NEB-TS, DLPNO-Multilevel, CI-OPT
                                                   MM, QMMM, 2- and 3-layer-ONIOM, Crystal-QMMM,
                                                   LR-CPCM, SF, NACMEs, symmetry and pop. for TD-DFT,
                                                   nearIR, NL-DFT gradient (VV10), updates on ESD,
                                                   ML-optimized integration grids
   S Lehtola, MJT Oliveira, MAL Marques          : LibXC Library
   Liviu Ungur et al                             : ANISO software


 Your calculation uses the libint2 library for the computation of 2-el integrals
 For citations please refer to: http://libint.valeyev.net

 Your ORCA version has been built with support for libXC version: 5.1.0
 For citations please refer to: https://tddft.org/programs/libxc/

 This ORCA versions uses:
   CBLAS   interface :  Fast vector & matrix operations
   LAPACKE interface :  Fast linear algebra routines
   SCALAPACK package :  Parallel linear algebra routines
   Shared memory     :  Shared parallel matrices
   BLAS/LAPACK       :  OpenBLAS 0.3.15  USE64BITINT DYNAMIC_ARCH NO_AFFINITY Zen SINGLE_THREADED
        Core in use  :  Zen
   Copyright (c) 2011-2014, The OpenBLAS Project




***************************************
The coordinates will be read from file: input.xyz
***************************************


================================================================================

----- Orbital basis set information -----
Your calculation utilizes the basis: 6-31G(d)
   H-He, Li-Ne : W. J. Hehre, R. Ditchfield and J.A. Pople, J. Chem. Phys. 56, 2257 (1972).
                 Note: He and Ne are unpublished basis sets taken from the Gaussian program.
                 Note: Li and B from J. D. Dill and J. A. Pople, J. Chem. Phys. 62, 2921 (1975).
   Na - Ar     : M. M. Francl, W. J. Pietro, W. J. Hehre, J. S. Binkley, M. S. Gordon, 
                 D. J. DeFrees and J. A. Pople, J. Chem. Phys. 77, 3654 (1982).
   K - Zn      : V. A. Rassolov, J. A. Pople, M. A. Ratner, and T. L. Windus, J. Chem. Phys. 109, 1223 (1998).

================================================================================
                                        WARNINGS
                       Please study these warnings very carefully!
================================================================================


WARNING: Geometry Optimization
  ===> : Switching off AutoStart
         For restart on a previous wavefunction, please use MOREAD

WARNING: Post HF methods need fully converged wavefunctions
  ===> : Setting SCFConvForced true
         You can overwrite this default with %scf ConvForced false 


INFO   : the flag for use of the SHARK integral package has been found!

================================================================================
                                       INPUT FILE
================================================================================
NAME = input.orc
|  1> ! MP2 UHF 6-31G(d) OPTTS NumFreq NoFrozenCore VERYTIGHTSCF VERYTIGHTOPT
|  2> 
|  3> * XYZfile 0 2 input.xyz
|  4> 
|  5>                          ****END OF INPUT****
================================================================================

                       *****************************
                       * Geometry Optimization Run *
                       *****************************

Geometry optimization settings:
Update method            Update   .... Bofill
Choice of coordinates    CoordSys .... Z-matrix Internals
Initial Hessian          InHess   .... Almoef's Model

Convergence Tolerances:
Energy Change            TolE     ....  2.0000e-07 Eh
Max. Gradient            TolMAXG  ....  3.0000e-05 Eh/bohr
RMS Gradient             TolRMSG  ....  8.0000e-06 Eh/bohr
Max. Displacement        TolMAXD  ....  2.0000e-04 bohr
RMS Displacement         TolRMSD  ....  1.0000e-04 bohr
Strict Convergence                ....  False
------------------------------------------------------------------------------
                        ORCA OPTIMIZATION COORDINATE SETUP
------------------------------------------------------------------------------

The optimization will be done in new redundant internal coordinates
Making redundant internal coordinates   ...  (new redundants) done
Following TS mode number                ...     0
Evaluating the initial hessian          ...  (Almloef) done
Evaluating the coordinates              ...  done
Calculating the B-matrix                .... done
Calculating the G-matrix                .... done
Diagonalizing the G-matrix              .... done
The first mode is                       ....   10
The number of degrees of freedom        ....   18

    -----------------------------------------------------------------
                    Redundant Internal Coordinates


    -----------------------------------------------------------------
         Definition                    Initial Value    Approx d2E/dq
    -----------------------------------------------------------------
      1. B(C   1,C   0)                  1.9400         0.082855   
      2. B(F   2,C   1)                  1.3832         0.533073   
      3. B(O   3,C   1)                  1.2067         1.097442   
      4. B(H   4,C   0)                  1.0827         0.369920   
      5. B(H   5,C   0)                  1.0829         0.369577   
      6. B(H   6,C   0)                  1.0846         0.367330   
      7. B(H   7,C   1)                  1.1010         0.345805   
      8. A(C   1,C   0,H   5)          103.7795         0.257334   
      9. A(H   4,C   0,H   6)          115.9121         0.292988   
     10. A(C   1,C   0,H   4)           99.6377         0.257369   
     11. A(H   4,C   0,H   5)          115.8002         0.293270   
     12. A(H   5,C   0,H   6)          116.7276         0.292945   
     13. A(C   1,C   0,H   6)          100.9652         0.257102   
     14. A(O   3,C   1,H   7)          125.1815         0.384130   
     15. A(F   2,C   1,O   3)          121.2987         0.460171   
     16. A(F   2,C   1,H   7)          107.6105         0.338232   
     17. A(C   0,C   1,H   7)           93.7035         0.254820   
     18. A(C   0,C   1,O   3)          102.2216         0.335949   
     19. A(C   0,C   1,F   2)           97.6914         0.297544   
     20. D(F   2,C   1,C   0,H   5)    175.3288         0.001910   
     21. D(F   2,C   1,C   0,H   6)     54.0498         0.001910   
     22. D(O   3,C   1,C   0,H   4)     59.5229         0.001910   
     23. D(O   3,C   1,C   0,H   5)    -60.2255         0.001910   
     24. D(O   3,C   1,C   0,H   6)    178.4956         0.001910   
     25. D(H   7,C   1,C   0,H   4)   -173.2638         0.001910   
     26. D(H   7,C   1,C   0,H   5)     66.9878         0.001910   
     27. D(H   7,C   1,C   0,H   6)    -54.2911         0.001910   
     28. D(F   2,C   1,C   0,H   4)    -64.9228         0.001910   
    -----------------------------------------------------------------

Number of atoms                         .... 8
Number of degrees of freedom            .... 28

         *************************************************************
         *                GEOMETRY OPTIMIZATION CYCLE   1            *
         *************************************************************
---------------------------------
CARTESIAN COORDINATES (ANGSTROEM)
---------------------------------
  C      1.110940   -0.002916   -0.124748
  C      0.365720    0.568060    1.572916
  F      1.022520    1.781945    1.664511
  O     -0.821162    0.511804    1.362734
  H      0.690617    0.756567   -0.771820
  H      0.718060   -1.003569   -0.255411
  H      2.173174    0.081533    0.077390
  H      0.942495   -0.167497    2.154761

----------------------------
CARTESIAN COORDINATES (A.U.)
----------------------------
  NO LB      ZA    FRAG     MASS         X           Y           Z
   0 C     6.0000    0    12.011    2.099372   -0.005510   -0.235740
   1 C     6.0000    0    12.011    0.691110    1.073478    2.972381
   2 F     9.0000    0    18.998    1.932283    3.367389    3.145470
   3 O     8.0000    0    15.999   -1.551771    0.967169    2.575194
   4 H     1.0000    0     1.008    1.305077    1.429705   -1.458529
   5 H     1.0000    0     1.008    1.356937   -1.896471   -0.482657
   6 H     1.0000    0     1.008    4.106703    0.154076    0.146245
   7 H     1.0000    0     1.008    1.781057   -0.316524    4.071909

--------------------------------
INTERNAL COORDINATES (ANGSTROEM)
--------------------------------
 C      0   0   0     0.000000000000     0.00000000     0.00000000
 C      1   0   0     1.939956069309     0.00000000     0.00000000
 F      2   1   0     1.383218272242    97.69137604     0.00000000
 O      2   1   3     1.206660658707   102.22164827   124.44572535
 H      1   2   3     1.082676085147    99.63765619   295.07721570
 H      1   2   3     1.082928871253   103.77952452   175.32881010
 H      1   2   3     1.084588681135   100.96519502    54.04983661
 H      2   1   3     1.101025985362    93.70351718   251.65902451

---------------------------
INTERNAL COORDINATES (A.U.)
---------------------------
 C      0   0   0     0.000000000000     0.00000000     0.00000000
 C      1   0   0     3.665985682832     0.00000000     0.00000000
 F      2   1   0     2.613903717974    97.69137604     0.00000000
 O      2   1   3     2.280258181532   102.22164827   124.44572535
 H      1   2   3     2.045961292673    99.63765619   295.07721570
 H      1   2   3     2.046438989184   103.77952452   175.32881010
 H      1   2   3     2.049575575295   100.96519502    54.04983661
 H      2   1   3     2.080637578665    93.70351718   251.65902451

---------------------
BASIS SET INFORMATION
---------------------
There are 4 groups of distinct atoms

 Group   1 Type C   : 10s4p1d contracted to 3s2p1d pattern {631/31/1}
 Group   2 Type F   : 10s4p1d contracted to 3s2p1d pattern {631/31/1}
 Group   3 Type O   : 10s4p1d contracted to 3s2p1d pattern {631/31/1}
 Group   4 Type H   : 4s contracted to 2s pattern {31}

Atom   0C    basis set group =>   1
Atom   1C    basis set group =>   1
Atom   2F    basis set group =>   2
Atom   3O    basis set group =>   3
Atom   4H    basis set group =>   4
Atom   5H    basis set group =>   4
Atom   6H    basis set group =>   4
Atom   7H    basis set group =>   4
------------------------------------------------------------------------------
                           ORCA GTO INTEGRAL CALCULATION
------------------------------------------------------------------------------
------------------------------------------------------------------------------
                   ___                                                        
                  /   \      - P O W E R E D   B Y -                         
                 /     \                                                     
                 |  |  |   _    _      __       _____    __    __             
                 |  |  |  | |  | |    /  \     |  _  \  |  |  /  |          
                  \  \/   | |  | |   /    \    | | | |  |  | /  /          
                 / \  \   | |__| |  /  /\  \   | |_| |  |  |/  /          
                |  |  |   |  __  | /  /__\  \  |    /   |      \           
                |  |  |   | |  | | |   __   |  |    \   |  |\   \          
                \     /   | |  | | |  |  |  |  | |\  \  |  | \   \       
                 \___/    |_|  |_| |__|  |__|  |_| \__\ |__|  \__/        
                                                                              
                      - O R C A' S   B I G   F R I E N D -                    
                                      &                                       
                       - I N T E G R A L  F E E D E R -                       
                                                                              
 v1 FN, 2020, v2 2021                                                         
------------------------------------------------------------------------------


Reading SHARK input file input.SHARKINP.tmp ... ok
----------------------
SHARK INTEGRAL PACKAGE
----------------------

Number of atoms                             ...      8
Number of basis functions                   ...     64
Number of shells                            ...     32
Maximum angular momentum                    ...      2
Integral batch strategy                     ... SHARK/LIBINT Hybrid
RI-J (if used) integral strategy            ... SPLIT-RIJ (Revised 2003 algorithm where possible)
Printlevel                                  ...      1
Contraction scheme used                     ... SEGMENTED contraction
Coulomb Range Separation                    ... NOT USED
Exchange Range Separation                   ... NOT USED
Finite Nucleus Model                        ... NOT USED
Auxiliary Coulomb fitting basis             ... NOT available
Auxiliary J/K fitting basis                 ... NOT available
Auxiliary Correlation fitting basis         ... NOT available
Auxiliary 'external' fitting basis          ... NOT available
Integral threshold                          ...     1.000000e-12
Primitive cut-off                           ...     1.000000e-14
Primitive pair pre-selection threshold      ...     1.000000e-14

Calculating pre-screening integrals         ... done (  0.0 sec) Dimension = 32
Organizing shell pair data                  ... done (  0.2 sec)
Shell pair information
Total number of shell pairs                 ...       528
Shell pairs after pre-screening             ...       525
Total number of primitive shell pairs       ...      3022
Primitive shell pairs kept                  ...      2327
          la=0 lb=0:    207 shell pairs
          la=1 lb=0:    160 shell pairs
          la=1 lb=1:     36 shell pairs
          la=2 lb=0:     80 shell pairs
          la=2 lb=1:     32 shell pairs
          la=2 lb=2:     10 shell pairs

Calculating one electron integrals          ... done (  0.0 sec)
Calculating Nuclear repulsion               ... done (  0.0 sec) ENN=    122.299549030304 Eh

SHARK setup successfully completed in   0.8 seconds

Maximum memory used throughout the entire GTOINT-calculation: 7.5 MB
-------------------------------------------------------------------------------
                                 ORCA SCF
-------------------------------------------------------------------------------

------------
SCF SETTINGS
------------
Hamiltonian:
 Ab initio Hamiltonian  Method          .... Hartree-Fock(GTOs)


General Settings:
 Integral files         IntName         .... input
 Hartree-Fock type      HFTyp           .... UHF
 Total Charge           Charge          ....    0
 Multiplicity           Mult            ....    2
 Number of Electrons    NEL             ....   33
 Basis Dimension        Dim             ....   64
 Nuclear Repulsion      ENuc            ....    122.2995490303 Eh

Convergence Acceleration:
 DIIS                   CNVDIIS         .... on
   Start iteration      DIISMaxIt       ....    12
   Startup error        DIISStart       ....  0.200000
   # of expansion vecs  DIISMaxEq       ....     5
   Bias factor          DIISBfac        ....   1.050
   Max. coefficient     DIISMaxC        ....  10.000
 Trust-Rad. Augm. Hess. CNVTRAH         .... auto
   Auto Start mean grad. ratio tolernc. ....  1.125000
   Auto Start start iteration           ....    20
   Auto Start num. interpolation iter.  ....    10
   Max. Number of Micro iterations      ....    16
   Max. Number of Macro iterations      .... Maxiter - #DIIS iter
   Number of Davidson start vectors     ....     2
   Converg. threshold I  (grad. norm)   ....   2.000e-06
   Converg. threshold II (energy diff.) ....   1.000e-09
   Grad. Scal. Fac. for Micro threshold ....   0.100
   Minimum threshold for Micro iter.    ....   0.010
   NR start threshold (gradient norm)   ....   0.001
   Initial trust radius                 ....   0.400
   Minimum AH scaling param. (alpha)    ....   1.000
   Maximum AH scaling param. (alpha)    .... 1000.000
   Orbital update algorithm             .... Taylor
   White noise on init. David. guess    .... on
   Maximum white noise                  ....   0.010
   Quad. conv. algorithm                .... NR
 SOSCF                  CNVSOSCF        .... off
 Level Shifting         CNVShift        .... on
   Level shift para.    LevelShift      ....    0.2500
   Turn off err/grad.   ShiftErr        ....    0.0010
 Zerner damping         CNVZerner       .... off
 Static damping         CNVDamp         .... on
   Fraction old density DampFac         ....    0.7000
   Max. Damping (<1)    DampMax         ....    0.9800
   Min. Damping (>=0)   DampMin         ....    0.0000
   Turn off err/grad.   DampErr         ....    0.1000
 Fernandez-Rico         CNVRico         .... off

SCF Procedure:
 Maximum # iterations   MaxIter         ....   125
 SCF integral mode      SCFMode         .... Direct
   Integral package                     .... SHARK and LIBINT hybrid scheme
 Reset frequency        DirectResetFreq ....    20
 Integral Threshold     Thresh          ....  1.000e-12 Eh
 Primitive CutOff       TCut            ....  1.000e-14 Eh

Convergence Tolerance:
 Convergence Check Mode ConvCheckMode   .... Total+1el-Energy
 Convergence forced     ConvForced      .... 1
 Energy Change          TolE            ....  1.000e-09 Eh
 1-El. energy change                    ....  1.000e-06 Eh
 DIIS Error             TolErr          ....  1.000e-08


Diagonalization of the overlap matrix:
Smallest eigenvalue                        ... 8.259e-03
Time for diagonalization                   ...    0.001 sec
Threshold for overlap eigenvalues          ... 1.000e-08
Number of eigenvalues below threshold      ... 0
Time for construction of square roots      ...    0.035 sec
Total time needed                          ...    0.036 sec

Time for model grid setup =    0.064 sec

------------------------------
INITIAL GUESS: MODEL POTENTIAL
------------------------------
Loading Hartree-Fock densities                     ... done
Calculating cut-offs                               ... done
Initializing the effective Hamiltonian             ... done
Setting up the integral package (SHARK)            ... done
Starting the Coulomb interaction                   ... done (   0.2 sec)
Reading the grid                                   ... done
Mapping shells                                     ... done
Starting the XC term evaluation                    ... done (   0.0 sec)
Transforming the Hamiltonian                       ... done (   0.0 sec)
Diagonalizing the Hamiltonian                      ... done (   0.0 sec)
Back transforming the eigenvectors                 ... done (   0.0 sec)
Now organizing SCF variables                       ... done
                      ------------------
                      INITIAL GUESS DONE (   0.3 sec)
                      ------------------
--------------
SCF ITERATIONS
--------------
ITER       Energy         Delta-E        Max-DP      RMS-DP      [F,P]     Damp
               ***  Starting incremental Fock matrix formation  ***
  0   -252.1219401206   0.000000000000 0.03454174  0.00139548  0.2356394 0.7000
  1   -252.1713091833  -0.049369062700 0.02640434  0.00104032  0.1404030 0.7000
                               ***Turning on DIIS***
  2   -252.2009188700  -0.029609686669 0.05789107  0.00223711  0.0763894 0.0000
  3   -252.0643753447   0.136543525231 0.02054468  0.00079892  0.0566276 0.0000
  4   -252.2944457325  -0.230070387783 0.01287955  0.00041872  0.0124547 0.0000
  5   -252.2736817137   0.020764018795 0.00872047  0.00032228  0.0061476 0.0000
  6   -252.2763762910  -0.002694577297 0.01090160  0.00035954  0.0065158 0.0000
  7   -252.2819285868  -0.005552295802 0.01131293  0.00035100  0.0056123 0.0000
  8   -252.2815911322   0.000337454605 0.01316079  0.00039749  0.0045448 0.0000
  9   -252.2801864821   0.001404650095 0.00982996  0.00030208  0.0030781 0.0000
 10   -252.2804806759  -0.000294193800 0.00493007  0.00016695  0.0016853 0.0000
 11   -252.2771180902   0.003362585677 0.00267645  0.00010305  0.0009828 0.0000
 12   -252.2764391486   0.000678941654 0.00047874  0.00002245  0.0002800 0.0000
 13   -252.2767608364  -0.000321687848 0.00072079  0.00002475  0.0001681 0.0000
 14   -252.2763242083   0.000436628123 0.00072487  0.00002339  0.0000924 0.0000
 15   -252.2765915980  -0.000267389731 0.00016281  0.00000652  0.0000324 0.0000
 16   -252.2766501813  -0.000058583306 0.00002227  0.00000104  0.0000166 0.0000
 17   -252.2766540215  -0.000003840188 0.00002255  0.00000079  0.0000137 0.0000
 18   -252.2766646396  -0.000010618055 0.00002100  0.00000067  0.0000107 0.0000
 19   -252.2766709216  -0.000006281995 0.00003222  0.00000102  0.0000083 0.0000
               *** Restarting incremental Fock matrix formation ***
                                   *** Resetting DIIS ***
 20   -252.2766619288   0.000008992753 0.00000352  0.00000016  0.0000043 0.0000
 21   -252.2766631724  -0.000001243549 0.00000336  0.00000016  0.0000032 0.0000
 22   -252.2766620621   0.000001110317 0.00000567  0.00000025  0.0000022 0.0000
 23   -252.2766612385   0.000000823581 0.00000152  0.00000006  0.0000006 0.0000
 24   -252.2766618539  -0.000000615453 0.00000092  0.00000003  0.0000003 0.0000
 25   -252.2766617673   0.000000086640 0.00000072  0.00000002  0.0000002 0.0000
 26   -252.2766619854  -0.000000218145 0.00000055  0.00000002  0.0000001 0.0000
 27   -252.2766620683  -0.000000082829 0.00000044  0.00000001  0.0000001 0.0000
 28   -252.2766620144   0.000000053871 0.00000013  0.00000001  0.0000000 0.0000
                            ***DIIS convergence achieved***

               *****************************************************
               *                     SUCCESS                       *
               *           SCF CONVERGED AFTER  29 CYCLES          *
               *****************************************************


----------------
TOTAL SCF ENERGY
----------------

Total Energy       :         -252.27666194 Eh           -6864.79697 eV

Components:
Nuclear Repulsion  :          122.29954903 Eh            3327.93992 eV
Electronic Energy  :         -374.57621097 Eh          -10192.73689 eV
One Electron Energy:         -589.94592564 Eh          -16053.24477 eV
Two Electron Energy:          215.36971467 Eh            5860.50788 eV

Virial components:
Potential Energy   :         -504.41418265 Eh          -13725.80772 eV
Kinetic Energy     :          252.13752071 Eh            6861.01075 eV
Virial Ratio       :            2.00055185


---------------
SCF CONVERGENCE
---------------

  Last Energy change         ...    7.4938e-08  Tolerance :   1.0000e-09
  Last MAX-Density change    ...    3.1530e-08  Tolerance :   1.0000e-08
  Last RMS-Density change    ...    1.2117e-09  Tolerance :   1.0000e-09
  Last DIIS Error            ...    1.9082e-08  Tolerance :   1.0000e-08

             **** THE GBW FILE WAS UPDATED (input.gbw) ****
             **** DENSITY input.scfp WAS UPDATED ****
             **** ENERGY FILE WAS UPDATED (input.en.tmp) ****
----------------------
UHF SPIN CONTAMINATION
----------------------

Expectation value of <S**2>     :     0.858023
Ideal value S*(S+1) for S=0.5   :     0.750000
Deviation                       :     0.108023

             **** THE GBW FILE WAS UPDATED (input.gbw) ****
             **** DENSITY input.scfp WAS UPDATED ****
----------------
ORBITAL ENERGIES
----------------
                 SPIN UP ORBITALS
  NO   OCC          E(Eh)            E(eV) 
   0   1.0000     -26.291294      -715.4225 
   1   1.0000     -20.616986      -561.0167 
   2   1.0000     -11.393797      -310.0410 
   3   1.0000     -11.269614      -306.6618 
   4   1.0000      -1.608007       -43.7561 
   5   1.0000      -1.455714       -39.6120 
   6   1.0000      -1.000236       -27.2178 
   7   1.0000      -0.869168       -23.6513 
   8   1.0000      -0.750542       -20.4233 
   9   1.0000      -0.714283       -19.4366 
  10   1.0000      -0.698610       -19.0101 
  11   1.0000      -0.633196       -17.2301 
  12   1.0000      -0.610836       -16.6217 
  13   1.0000      -0.596579       -16.2337 
  14   1.0000      -0.586896       -15.9702 
  15   1.0000      -0.513169       -13.9640 
  16   1.0000      -0.410236       -11.1631 
  17   0.0000       0.216795         5.8993 
  18   0.0000       0.247237         6.7277 
  19   0.0000       0.288462         7.8495 
  20   0.0000       0.301218         8.1966 
  21   0.0000       0.306096         8.3293 
  22   0.0000       0.392774        10.6879 
  23   0.0000       0.456503        12.4221 
  24   0.0000       0.696622        18.9561 
  25   0.0000       0.723253        19.6807 
  26   0.0000       0.747685        20.3455 
  27   0.0000       0.777894        21.1676 
  28   0.0000       0.834162        22.6987 
  29   0.0000       0.926142        25.2016 
  30   0.0000       1.012686        27.5566 
  31   0.0000       1.088273        29.6134 
  32   0.0000       1.122468        30.5439 
  33   0.0000       1.163448        31.6590 
  34   0.0000       1.167815        31.7779 
  35   0.0000       1.222292        33.2602 
  36   0.0000       1.264767        34.4161 
  37   0.0000       1.298022        35.3210 
  38   0.0000       1.448840        39.4249 
  39   0.0000       1.550688        42.1964 
  40   0.0000       1.587394        43.1952 
  41   0.0000       1.615541        43.9611 
  42   0.0000       1.720098        46.8063 
  43   0.0000       1.737294        47.2742 
  44   0.0000       1.890139        51.4333 
  45   0.0000       1.921155        52.2773 
  46   0.0000       1.951271        53.0968 
  47   0.0000       1.999876        54.4194 
  48   0.0000       2.093110        56.9564 
  49   0.0000       2.130133        57.9639 
  50   0.0000       2.165018        58.9131 
  51   0.0000       2.205631        60.0183 
  52   0.0000       2.259502        61.4842 
  53   0.0000       2.317071        63.0507 
  54   0.0000       2.410431        65.5912 
  55   0.0000       2.539897        69.1141 
  56   0.0000       2.542501        69.1850 
  57   0.0000       2.626693        71.4759 
  58   0.0000       2.738972        74.5312 
  59   0.0000       2.812487        76.5317 
  60   0.0000       2.954632        80.3996 
  61   0.0000       3.179780        86.5262 
  62   0.0000       3.282252        89.3146 
  63   0.0000       3.465200        94.2929 

                 SPIN DOWN ORBITALS
  NO   OCC          E(Eh)            E(eV) 
   0   1.0000     -26.291609      -715.4311 
   1   1.0000     -20.589018      -560.2557 
   2   1.0000     -11.404541      -310.3333 
   3   1.0000     -11.250721      -306.1477 
   4   1.0000      -1.608380       -43.7663 
   5   1.0000      -1.390907       -37.8485 
   6   1.0000      -0.939265       -25.5587 
   7   1.0000      -0.857178       -23.3250 
   8   1.0000      -0.743153       -20.2222 
   9   1.0000      -0.691229       -18.8093 
  10   1.0000      -0.681443       -18.5430 
  11   1.0000      -0.601826       -16.3765 
  12   1.0000      -0.595499       -16.2043 
  13   1.0000      -0.582231       -15.8433 
  14   1.0000      -0.485088       -13.1999 
  15   1.0000      -0.475245       -12.9321 
  16   0.0000       0.066986         1.8228 
  17   0.0000       0.237801         6.4709 
  18   0.0000       0.274036         7.4569 
  19   0.0000       0.292099         7.9484 
  20   0.0000       0.312527         8.5043 
  21   0.0000       0.317887         8.6502 
  22   0.0000       0.392645        10.6844 
  23   0.0000       0.461525        12.5587 
  24   0.0000       0.702203        19.1079 
  25   0.0000       0.763339        20.7715 
  26   0.0000       0.771040        20.9811 
  27   0.0000       0.790834        21.5197 
  28   0.0000       0.842663        22.9300 
  29   0.0000       0.931650        25.3515 
  30   0.0000       1.035646        28.1814 
  31   0.0000       1.094571        29.7848 
  32   0.0000       1.137986        30.9662 
  33   0.0000       1.174051        31.9476 
  34   0.0000       1.178551        32.0700 
  35   0.0000       1.245859        33.9015 
  36   0.0000       1.311005        35.6742 
  37   0.0000       1.350130        36.7389 
  38   0.0000       1.458647        39.6918 
  39   0.0000       1.553179        42.2641 
  40   0.0000       1.587943        43.2101 
  41   0.0000       1.625741        44.2387 
  42   0.0000       1.725260        46.9467 
  43   0.0000       1.737045        47.2674 
  44   0.0000       1.917986        52.1910 
  45   0.0000       1.941778        52.8385 
  46   0.0000       1.992245        54.2117 
  47   0.0000       2.036566        55.4178 
  48   0.0000       2.118206        57.6393 
  49   0.0000       2.150889        58.5287 
  50   0.0000       2.184400        59.4405 
  51   0.0000       2.231615        60.7253 
  52   0.0000       2.274052        61.8801 
  53   0.0000       2.335533        63.5531 
  54   0.0000       2.410358        65.5892 
  55   0.0000       2.554271        69.5053 
  56   0.0000       2.557192        69.5847 
  57   0.0000       2.650341        72.1195 
  58   0.0000       2.742155        74.6178 
  59   0.0000       2.814477        76.5858 
  60   0.0000       2.968806        80.7853 
  61   0.0000       3.183162        86.6182 
  62   0.0000       3.291186        89.5577 
  63   0.0000       3.465405        94.2985 

                    ********************************
                    * MULLIKEN POPULATION ANALYSIS *
                    ********************************

--------------------------------------------
MULLIKEN ATOMIC CHARGES AND SPIN POPULATIONS
--------------------------------------------
   0 C :   -0.534059    0.803435
   1 C :    0.547336   -0.376857
   2 F :   -0.447067    0.003176
   3 O :   -0.395508    0.624771
   4 H :    0.224835   -0.047363
   5 H :    0.204124   -0.048531
   6 H :    0.207144   -0.034744
   7 H :    0.193196    0.076113
Sum of atomic charges         :    0.0000000
Sum of atomic spin populations:    1.0000000

-----------------------------------------------------
MULLIKEN REDUCED ORBITAL CHARGES AND SPIN POPULATIONS
-----------------------------------------------------
CHARGE
  0 C s       :     3.407903  s :     3.407903
      pz      :     0.925574  p :     3.089135
      px      :     1.061078
      py      :     1.102483
      dz2     :     0.006050  d :     0.037021
      dxz     :     0.004166
      dyz     :     0.007056
      dx2y2   :     0.013499
      dxy     :     0.006249
  1 C s       :     3.035753  s :     3.035753
      pz      :     0.866338  p :     2.283058
      px      :     0.756500
      py      :     0.660220
      dz2     :     0.012171  d :     0.133853
      dxz     :     0.022627
      dyz     :     0.015474
      dx2y2   :     0.033013
      dxy     :     0.050569
  2 F s       :     3.981716  s :     3.981716
      pz      :     1.939205  p :     5.449106
      px      :     1.860087
      py      :     1.649814
      dz2     :     0.002541  d :     0.016245
      dxz     :     0.000677
      dyz     :     0.002685
      dx2y2   :     0.003925
      dxy     :     0.006417
  3 O s       :     3.881858  s :     3.881858
      pz      :     1.302904  p :     4.481087
      px      :     1.354323
      py      :     1.823860
      dz2     :     0.003674  d :     0.032564
      dxz     :     0.011860
      dyz     :     0.000320
      dx2y2   :     0.009071
      dxy     :     0.007638
  4 H s       :     0.775165  s :     0.775165
  5 H s       :     0.795876  s :     0.795876
  6 H s       :     0.792856  s :     0.792856
  7 H s       :     0.806804  s :     0.806804

SPIN
  0 C s       :     0.095559  s :     0.095559
      pz      :     0.500840  p :     0.711177
      px      :     0.127528
      py      :     0.082808
      dz2     :    -0.000750  d :    -0.003300
      dxz     :    -0.001017
      dyz     :    -0.000824
      dx2y2   :    -0.000786
      dxy     :     0.000076
  1 C s       :    -0.061569  s :    -0.061569
      pz      :    -0.237179  p :    -0.328013
      px      :    -0.053631
      py      :    -0.037203
      dz2     :     0.001730  d :     0.012725
      dxz     :     0.010036
      dyz     :     0.002173
      dx2y2   :     0.000173
      dxy     :    -0.001388
  2 F s       :     0.000220  s :     0.000220
      pz      :    -0.002569  p :     0.003052
      px      :     0.000603
      py      :     0.005018
      dz2     :     0.000002  d :    -0.000096
      dxz     :    -0.000043
      dyz     :     0.000016
      dx2y2   :    -0.000025
      dxy     :    -0.000046
  3 O s       :     0.024018  s :     0.024018
      pz      :     0.527357  p :     0.606011
      px      :     0.056564
      py      :     0.022090
      dz2     :    -0.000176  d :    -0.005258
      dxz     :    -0.004360
      dyz     :     0.000020
      dx2y2   :    -0.000447
      dxy     :    -0.000294
  4 H s       :    -0.047363  s :    -0.047363
  5 H s       :    -0.048531  s :    -0.048531
  6 H s       :    -0.034744  s :    -0.034744
  7 H s       :     0.076113  s :     0.076113


                     *******************************
                     * LOEWDIN POPULATION ANALYSIS *
                     *******************************

-------------------------------------------
LOEWDIN ATOMIC CHARGES AND SPIN POPULATIONS
-------------------------------------------
   0 C :   -0.337195    0.681565
   1 C :    0.144714   -0.233068
   2 F :   -0.225942   -0.003522
   3 O :   -0.158165    0.572790
   4 H :    0.156486   -0.026878
   5 H :    0.145002   -0.028029
   6 H :    0.148099   -0.018701
   7 H :    0.127000    0.055844

----------------------------------------------------
LOEWDIN REDUCED ORBITAL CHARGES AND SPIN POPULATIONS
----------------------------------------------------
CHARGE
  0 C s       :     3.078000  s :     3.078000
      pz      :     0.966067  p :     3.205741
      px      :     1.101980
      py      :     1.137693
      dz2     :     0.008985  d :     0.053454
      dxz     :     0.005910
      dyz     :     0.010076
      dx2y2   :     0.019544
      dxy     :     0.008939
  1 C s       :     2.894864  s :     2.894864
      pz      :     0.907206  p :     2.662037
      px      :     0.954642
      py      :     0.800189
      dz2     :     0.029457  d :     0.298385
      dxz     :     0.047032
      dyz     :     0.030838
      dx2y2   :     0.073773
      dxy     :     0.117286
  2 F s       :     3.764403  s :     3.764403
      pz      :     1.926457  p :     5.431578
      px      :     1.847958
      py      :     1.657163
      dz2     :     0.004556  d :     0.029961
      dxz     :     0.001432
      dyz     :     0.005567
      dx2y2   :     0.008511
      dxy     :     0.009896
  3 O s       :     3.568155  s :     3.568155
      pz      :     1.292285  p :     4.530932
      px      :     1.460547
      py      :     1.778100
      dz2     :     0.007643  d :     0.059078
      dxz     :     0.018848
      dyz     :     0.000562
      dx2y2   :     0.020957
      dxy     :     0.011068
  4 H s       :     0.843514  s :     0.843514
  5 H s       :     0.854998  s :     0.854998
  6 H s       :     0.851901  s :     0.851901
  7 H s       :     0.873000  s :     0.873000

SPIN
  0 C s       :     0.063647  s :     0.063647
      pz      :     0.451170  p :     0.624927
      px      :     0.111104
      py      :     0.062652
      dz2     :    -0.001709  d :    -0.007009
      dxz     :    -0.001848
      dyz     :    -0.001529
      dx2y2   :    -0.001465
      dxy     :    -0.000458
  1 C s       :    -0.031422  s :    -0.031422
      pz      :    -0.167546  p :    -0.234380
      px      :    -0.039783
      py      :    -0.027051
      dz2     :     0.003711  d :     0.032734
      dxz     :     0.024930
      dyz     :     0.004100
      dx2y2   :     0.001717
      dxy     :    -0.001723
  2 F s       :    -0.000790  s :    -0.000790
      pz      :    -0.003074  p :    -0.000435
      px      :    -0.000755
      py      :     0.003394
      dz2     :    -0.000117  d :    -0.002298
      dxz     :    -0.000554
      dyz     :    -0.000736
      dx2y2   :    -0.000502
      dxy     :    -0.000389
  3 O s       :     0.014272  s :     0.014272
      pz      :     0.502334  p :     0.567889
      px      :     0.046187
      py      :     0.019369
      dz2     :    -0.000716  d :    -0.009372
      dxz     :    -0.006417
      dyz     :     0.000001
      dx2y2   :    -0.001494
      dxy     :    -0.000747
  4 H s       :    -0.026878  s :    -0.026878
  5 H s       :    -0.028029  s :    -0.028029
  6 H s       :    -0.018701  s :    -0.018701
  7 H s       :     0.055844  s :     0.055844


                      *****************************
                      * MAYER POPULATION ANALYSIS *
                      *****************************

  NA   - Mulliken gross atomic population
  ZA   - Total nuclear charge
  QA   - Mulliken gross atomic charge
  VA   - Mayer's total valence
  BVA  - Mayer's bonded valence
  FA   - Mayer's free valence

  ATOM       NA         ZA         QA         VA         BVA        FA
  0 C      6.5341     6.0000    -0.5341     3.7541     3.3005     0.4536
  1 C      5.4527     6.0000     0.5473     3.7494     3.6598     0.0896
  2 F      9.4471     9.0000    -0.4471     0.8033     0.8031     0.0002
  3 O      8.3955     8.0000    -0.3955     2.0162     1.6692     0.3470
  4 H      0.7752     1.0000     0.2248     0.9196     0.9174     0.0022
  5 H      0.7959     1.0000     0.2041     0.9199     0.9176     0.0023
  6 H      0.7929     1.0000     0.2071     0.9219     0.9207     0.0011
  7 H      0.8068     1.0000     0.1932     0.9129     0.9070     0.0059

  Mayer bond orders larger than 0.100000
B(  0-C ,  1-C ) :   0.4411 B(  0-C ,  4-H ) :   0.9307 B(  0-C ,  5-H ) :   0.9316 
B(  0-C ,  6-H ) :   0.9344 B(  1-C ,  2-F ) :   0.7617 B(  1-C ,  3-O ) :   1.5710 
B(  1-C ,  7-H ) :   0.8994 

-------
TIMINGS
-------

Total SCF time: 0 days 0 hours 0 min 11 sec 

Total time                  ....      11.947 sec
Sum of individual times     ....      10.568 sec  ( 88.5%)

Fock matrix formation       ....       8.921 sec  ( 74.7%)
Diagonalization             ....       0.412 sec  (  3.5%)
Density matrix formation    ....       0.001 sec  (  0.0%)
Population analysis         ....       0.365 sec  (  3.1%)
Initial guess               ....       0.243 sec  (  2.0%)
Orbital Transformation      ....       0.000 sec  (  0.0%)
Orbital Orthonormalization  ....       0.000 sec  (  0.0%)
DIIS solution               ....       0.560 sec  (  4.7%)

Maximum memory used throughout the entire SCF-calculation: 228.5 MB

------------------------------------------------------------------------------
                                ORCA  MP2 
------------------------------------------------------------------------------

MP2 will be done in the AO integral direct mode
The Q1-step will be done using symmetric double matrices
Dimension of the basis                    ...   64
Memory devoted for MP2                    ...  256 MB   
Memory needed for all in one shot         ...   18 MB
Number of MOs that can be treated together...  251      
MP2 density construction                  ... relaxed
The MP2 gradient is requested => amplitudes will be stored on disk
Total number of MOs              ...   17
Number of MOs treated per batch  ...   17 
Number of batches necessary      ...    1 
OPERATORS   0/  0 PASS   0
OPERATORS   0/  1 PASS   0
Total number of MOs              ...   17
Number of MOs treated per batch  ...   16 
Number of batches necessary      ...    1 
OPERATORS   1/  0 PASS   0
OPERATORS   1/  1 PASS   0

Correlation energy components
 E2 and T2 for alpha/alpha pairs :     -0.080502967 Eh
 E2 and T2 for beta/beta   pairs :     -0.075344454 Eh
 E2 and T2 for alpha/beta  pairs :     -0.429258422 Eh

-----------------------------------------------
 MP2 CORRELATION ENERGY   :     -0.585105844 Eh
-----------------------------------------------


---------------------
MP2 DENSITY FORMATION
---------------------

Completing the external part of the density      ... done
Storing the unrelaxed density                    ... done

Calculating G(D)                                 ... done
Completing the Lagrangian                        ... done
Solving the Z-vector equations                   ... 

------------------------------------------------------------------------------
                           ORCA CP-SCF CALCULATION
------------------------------------------------------------------------------

Input orbitals are from        ... input.gbw
Input Perturbation             ... input.pin.tmp
Wavefunction output            ... input.pout.tmp
Perturbation mode              ... Real perturbation (singlet)
Solver                         ... POPLE
Max. number of iterations      ... 128
Convergence tolerance          ... 3.000e-05
Integral handling              ... Direct
Number of perturbations        ... 1
Number of operators            ... 2
Orbital ranges used for CP-SCF:
 Operator 0:  Orbitals   0... 16  to  17... 63
 Operator 1:  Orbitals   0... 15  to  16... 63
Variables per perturbation     ... 1567
Memory available               ... 1017.7 MB
Memory needed per perturbation ...   3.2 MB
Perturbations treated per batch... 1
Number of batches              ... 1
     CP-SCF ITERATION   0:   1.0609e-01 (   0.2 sec)
     CP-SCF ITERATION   1:   7.4829e-02 (   0.2 sec)
     CP-SCF ITERATION   2:   3.5741e-02 (   0.2 sec)
     CP-SCF ITERATION   3:   1.6032e-02 (   0.2 sec)
     CP-SCF ITERATION   4:   7.4473e-03 (   0.2 sec)
     CP-SCF ITERATION   5:   4.2358e-03 (   0.2 sec)
     CP-SCF ITERATION   6:   1.5958e-03 (   0.2 sec)
     CP-SCF ITERATION   7:   6.5899e-04 (   0.2 sec)
     CP-SCF ITERATION   8:   4.3418e-04 (   0.2 sec)
     CP-SCF ITERATION   9:   3.0720e-04 (   0.2 sec)
     CP-SCF ITERATION  10:   1.4725e-04 (   0.2 sec)
     CP-SCF ITERATION  11:   7.3904e-05 (   0.2 sec)
     CP-SCF ITERATION  12:   2.4497e-05 (   0.2 sec)
                    *** THE CP-SCF HAS CONVERGED ***
                                                 ... done
Finalizing the relaxed density                   ... done
Transforming P to the AO basis                   ... done
Storing the relaxed density                      ... done

------------------------------------
ENERGY WEIGHTED DENSITY FINALIZATION
------------------------------------

Gathering the parts of the W-matrix              ...                                                                                                           done
Forming the Z-density                            ... done
Transforming Z to the AO basis                   ... done
Calculating G(Z)                                 ... done
Finalizing the W-matrix                          ...                                                                                                           done
Transforming W to the AO basis and storing       ... done

                *********************************************
                * UNRELAXED MP2 DENSITY POPULATION ANALYSIS *
                *********************************************

------------------------------------------------------------------------------
                           ORCA POPULATION ANALYSIS
------------------------------------------------------------------------------
Input electron density              ... input.pmp2ur
Input spin density                  ... input.rmp2ur
BaseName (.gbw .S,...)              ... input

                    ********************************
                    * MULLIKEN POPULATION ANALYSIS *
                    ********************************

------------------------------------------
MULLIKEN ATOMIC CHARGES AND SPIN DENSITIES
------------------------------------------
   0 C :   -0.539091    0.795685
   1 C :    0.523765   -0.362654
   2 F :   -0.434933    0.003040
   3 O :   -0.385354    0.616770
   4 H :    0.226334   -0.046484
   5 H :    0.205786   -0.047693
   6 H :    0.208810   -0.033931
   7 H :    0.194682    0.075267
Sum of atomic charges       :    0.0000000
Sum of atomic spin densities:    1.0000000

---------------------------------------------------
MULLIKEN REDUCED ORBITAL CHARGES AND SPIN DENSITIES
---------------------------------------------------
CHARGE
  0 C s       :     3.403862  s :     3.403862
      pz      :     0.924612  p :     3.084304
      px      :     1.059287
      py      :     1.100405
      dz2     :     0.008706  d :     0.050925
      dxz     :     0.006933
      dyz     :     0.009793
      dx2y2   :     0.016251
      dxy     :     0.009243
  1 C s       :     3.036954  s :     3.036954
      pz      :     0.866026  p :     2.294648
      px      :     0.759880
      py      :     0.668742
      dz2     :     0.014456  d :     0.144633
      dxz     :     0.025139
      dyz     :     0.017747
      dx2y2   :     0.034763
      dxy     :     0.052528
  2 F s       :     3.979640  s :     3.979640
      pz      :     1.929831  p :     5.419641
      px      :     1.850690
      py      :     1.639120
      dz2     :     0.006289  d :     0.035652
      dxz     :     0.004458
      dyz     :     0.006688
      dx2y2   :     0.007910
      dxy     :     0.010308
  3 O s       :     3.877096  s :     3.877096
      pz      :     1.299120  p :     4.455737
      px      :     1.346677
      py      :     1.809939
      dz2     :     0.007384  d :     0.052521
      dxz     :     0.015577
      dyz     :     0.004416
      dx2y2   :     0.012974
      dxy     :     0.012170
  4 H s       :     0.773666  s :     0.773666
  5 H s       :     0.794214  s :     0.794214
  6 H s       :     0.791190  s :     0.791190
  7 H s       :     0.805318  s :     0.805318

SPIN
  0 C s       :     0.095699  s :     0.095699
      pz      :     0.493248  p :     0.700370
      px      :     0.125688
      py      :     0.081434
      dz2     :     0.000216  d :    -0.000384
      dxz     :    -0.000205
      dyz     :    -0.000090
      dx2y2   :    -0.000562
      dxy     :     0.000258
  1 C s       :    -0.060473  s :    -0.060473
      pz      :    -0.225539  p :    -0.313792
      px      :    -0.051874
      py      :    -0.036379
      dz2     :     0.001309  d :     0.011611
      dxz     :     0.009716
      dyz     :     0.001909
      dx2y2   :     0.000105
      dxy     :    -0.001428
  2 F s       :     0.000225  s :     0.000225
      pz      :    -0.002464  p :     0.002876
      px      :     0.000502
      py      :     0.004838
      dz2     :     0.000004  d :    -0.000061
      dxz     :    -0.000039
      dyz     :     0.000027
      dx2y2   :    -0.000017
      dxy     :    -0.000036
  3 O s       :     0.025571  s :     0.025571
      pz      :     0.516806  p :     0.593441
      px      :     0.054830
      py      :     0.021805
      dz2     :     0.000851  d :    -0.002241
      dxz     :    -0.003115
      dyz     :     0.000699
      dx2y2   :    -0.000411
      dxy     :    -0.000264
  4 H s       :    -0.046484  s :    -0.046484
  5 H s       :    -0.047693  s :    -0.047693
  6 H s       :    -0.033931  s :    -0.033931
  7 H s       :     0.075267  s :     0.075267


                     *******************************
                     * LOEWDIN POPULATION ANALYSIS *
                     *******************************

-----------------------------------------
LOEWDIN ATOMIC CHARGES AND SPIN DENSITIES
-----------------------------------------
   0 C :   -0.345185    0.675630
   1 C :    0.125583   -0.221621
   2 F :   -0.215807   -0.003344
   3 O :   -0.150979    0.565448
   4 H :    0.158954   -0.026094
   5 H :    0.147536   -0.027273
   6 H :    0.150596   -0.017990
   7 H :    0.129301    0.055245

--------------------------------------------------
LOEWDIN REDUCED ORBITAL CHARGES AND SPIN DENSITIES
--------------------------------------------------
CHARGE
  0 C s       :     3.076823  s :     3.076823
      pz      :     0.964580  p :     3.199481
      px      :     1.099694
      py      :     1.135206
      dz2     :     0.011901  d :     0.068881
      dxz     :     0.008882
      dyz     :     0.013096
      dx2y2   :     0.022761
      dxy     :     0.012241
  1 C s       :     2.896337  s :     2.896337
      pz      :     0.906569  p :     2.667866
      px      :     0.955016
      py      :     0.806280
      dz2     :     0.032233  d :     0.310215
      dxz     :     0.049694
      dyz     :     0.033222
      dx2y2   :     0.076461
      dxy     :     0.118604
  2 F s       :     3.763066  s :     3.763066
      pz      :     1.916756  p :     5.402646
      px      :     1.838788
      py      :     1.647102
      dz2     :     0.008503  d :     0.050095
      dxz     :     0.005226
      dyz     :     0.009536
      dx2y2   :     0.012601
      dxy     :     0.014229
  3 O s       :     3.564872  s :     3.564872
      pz      :     1.288441  p :     4.505134
      px      :     1.451884
      py      :     1.764810
      dz2     :     0.011704  d :     0.080973
      dxz     :     0.022830
      dyz     :     0.004671
      dx2y2   :     0.025992
      dxy     :     0.015775
  4 H s       :     0.841046  s :     0.841046
  5 H s       :     0.852464  s :     0.852464
  6 H s       :     0.849404  s :     0.849404
  7 H s       :     0.870699  s :     0.870699

SPIN
  0 C s       :     0.064096  s :     0.064096
      pz      :     0.444334  p :     0.615389
      px      :     0.109487
      py      :     0.061567
      dz2     :    -0.000664  d :    -0.003855
      dxz     :    -0.000969
      dyz     :    -0.000742
      dx2y2   :    -0.001214
      dxy     :    -0.000266
  1 C s       :    -0.030739  s :    -0.030739
      pz      :    -0.157775  p :    -0.222114
      px      :    -0.038062
      py      :    -0.026278
      dz2     :     0.003220  d :     0.031231
      dxz     :     0.024255
      dyz     :     0.003834
      dx2y2   :     0.001657
      dxy     :    -0.001734
  2 F s       :    -0.000792  s :    -0.000792
      pz      :    -0.002810  p :    -0.000382
      px      :    -0.000833
      py      :     0.003261
      dz2     :    -0.000114  d :    -0.002170
      dxz     :    -0.000527
      dyz     :    -0.000676
      dx2y2   :    -0.000473
      dxy     :    -0.000379
  3 O s       :     0.015572  s :     0.015572
      pz      :     0.492198  p :     0.556132
      px      :     0.044839
      py      :     0.019096
      dz2     :     0.000344  d :    -0.006256
      dxz     :    -0.005129
      dyz     :     0.000678
      dx2y2   :    -0.001432
      dxy     :    -0.000717
  4 H s       :    -0.026094  s :    -0.026094
  5 H s       :    -0.027273  s :    -0.027273
  6 H s       :    -0.017990  s :    -0.017990
  7 H s       :     0.055245  s :     0.055245


                      *****************************
                      * MAYER POPULATION ANALYSIS *
                      *****************************

  NA   - Mulliken gross atomic population
  ZA   - Total nuclear charge
  QA   - Mulliken gross atomic charge
  VA   - Mayer's total valence
  BVA  - Mayer's bonded valence
  FA   - Mayer's free valence

  ATOM       NA         ZA         QA         VA         BVA        FA
  0 C      6.5391     6.0000    -0.5391     3.8445     3.1747     0.6698
  1 C      5.4762     6.0000     0.5238     3.8173     3.4736     0.3436
  2 F      9.4349     9.0000    -0.4349     1.0803     0.7558     0.3246
  3 O      8.3854     8.0000    -0.3854     2.2379     1.5648     0.6731
  4 H      0.7737     1.0000     0.2263     0.9215     0.8859     0.0357
  5 H      0.7942     1.0000     0.2058     0.9222     0.8856     0.0366
  6 H      0.7912     1.0000     0.2088     0.9241     0.8887     0.0354
  7 H      0.8053     1.0000     0.1947     0.9155     0.8720     0.0435

  Mayer bond orders larger than 0.100000
B(  0-C ,  1-C ) :   0.4171 B(  0-C ,  4-H ) :   0.8996 B(  0-C ,  5-H ) :   0.9001 
B(  0-C ,  6-H ) :   0.9028 B(  1-C ,  2-F ) :   0.7217 B(  1-C ,  3-O ) :   1.4806 
B(  1-C ,  7-H ) :   0.8676 


                *******************************************
                * RELAXED MP2 DENSITY POPULATION ANALYSIS *
                *******************************************

------------------------------------------------------------------------------
                           ORCA POPULATION ANALYSIS
------------------------------------------------------------------------------
Input electron density              ... input.pmp2re
Input spin density                  ... input.rmp2re
BaseName (.gbw .S,...)              ... input

                    ********************************
                    * MULLIKEN POPULATION ANALYSIS *
                    ********************************

------------------------------------------
MULLIKEN ATOMIC CHARGES AND SPIN DENSITIES
------------------------------------------
   0 C :   -0.510785    0.707695
   1 C :    0.460880    0.033037
   2 F :   -0.353468    0.004497
   3 O :   -0.426530    0.283419
   4 H :    0.232186   -0.028045
   5 H :    0.213868   -0.029891
   6 H :    0.209672   -0.015446
   7 H :    0.174178    0.044735
Sum of atomic charges       :    0.0000000
Sum of atomic spin densities:    1.0000000

---------------------------------------------------
MULLIKEN REDUCED ORBITAL CHARGES AND SPIN DENSITIES
---------------------------------------------------
CHARGE
  0 C s       :     3.395458  s :     3.395458
      pz      :     0.899425  p :     3.069916
      px      :     1.054455
      py      :     1.116035
      dz2     :     0.007779  d :     0.045411
      dxz     :     0.006178
      dyz     :     0.008737
      dx2y2   :     0.014472
      dxy     :     0.008245
  1 C s       :     3.066232  s :     3.066232
      pz      :     0.773401  p :     2.326392
      px      :     0.815704
      py      :     0.737287
      dz2     :     0.013496  d :     0.146496
      dxz     :     0.029445
      dyz     :     0.017410
      dx2y2   :     0.031876
      dxy     :     0.054269
  2 F s       :     3.968647  s :     3.968647
      pz      :     1.898972  p :     5.350070
      px      :     1.836018
      py      :     1.615080
      dz2     :     0.005914  d :     0.034751
      dxz     :     0.004510
      dyz     :     0.007058
      dx2y2   :     0.007928
      dxy     :     0.009341
  3 O s       :     3.850926  s :     3.850926
      pz      :     1.457439  p :     4.524894
      px      :     1.329402
      py      :     1.738053
      dz2     :     0.006791  d :     0.050710
      dxz     :     0.014413
      dyz     :     0.004410
      dx2y2   :     0.012132
      dxy     :     0.012964
  4 H s       :     0.767814  s :     0.767814
  5 H s       :     0.786132  s :     0.786132
  6 H s       :     0.790328  s :     0.790328
  7 H s       :     0.825822  s :     0.825822

SPIN
  0 C s       :     0.071435  s :     0.071435
      pz      :     0.461049  p :     0.634224
      px      :     0.109529
      py      :     0.063647
      dz2     :     0.000954  d :     0.002036
      dxz     :     0.000518
      dyz     :     0.000381
      dx2y2   :    -0.000196
      dxy     :     0.000380
  1 C s       :     0.001531  s :     0.001531
      pz      :     0.035419  p :     0.020871
      px      :    -0.006428
      py      :    -0.008120
      dz2     :     0.000663  d :     0.010635
      dxz     :     0.008720
      dyz     :     0.001893
      dx2y2   :    -0.000124
      dxy     :    -0.000517
  2 F s       :     0.000003  s :     0.000003
      pz      :     0.009937  p :     0.004472
      px      :    -0.002618
      py      :    -0.002847
      dz2     :     0.000060  d :     0.000022
      dxz     :    -0.000038
      dyz     :    -0.000033
      dx2y2   :    -0.000030
      dxy     :     0.000063
  3 O s       :     0.008478  s :     0.008478
      pz      :     0.247129  p :     0.273905
      px      :     0.018526
      py      :     0.008249
      dz2     :     0.001113  d :     0.001037
      dxz     :    -0.000528
      dyz     :     0.000717
      dx2y2   :    -0.000155
      dxy     :    -0.000110
  4 H s       :    -0.028045  s :    -0.028045
  5 H s       :    -0.029891  s :    -0.029891
  6 H s       :    -0.015446  s :    -0.015446
  7 H s       :     0.044735  s :     0.044735


                     *******************************
                     * LOEWDIN POPULATION ANALYSIS *
                     *******************************

-----------------------------------------
LOEWDIN ATOMIC CHARGES AND SPIN DENSITIES
-----------------------------------------
   0 C :   -0.329221    0.638285
   1 C :    0.126538    0.062834
   2 F :   -0.175469    0.010091
   3 O :   -0.234825    0.286007
   4 H :    0.169534   -0.014726
   5 H :    0.159229   -0.016428
   6 H :    0.157999   -0.006775
   7 H :    0.126215    0.040713

--------------------------------------------------
LOEWDIN REDUCED ORBITAL CHARGES AND SPIN DENSITIES
--------------------------------------------------
CHARGE
  0 C s       :     3.085041  s :     3.085041
      pz      :     0.933068  p :     3.181403
      px      :     1.099478
      py      :     1.148857
      dz2     :     0.010572  d :     0.062778
      dxz     :     0.007870
      dyz     :     0.011911
      dx2y2   :     0.021199
      dxy     :     0.011226
  1 C s       :     2.911116  s :     2.911116
      pz      :     0.826782  p :     2.645362
      px      :     0.977573
      py      :     0.841007
      dz2     :     0.031005  d :     0.316984
      dxz     :     0.057098
      dyz     :     0.032796
      dx2y2   :     0.074275
      dxy     :     0.121810
  2 F s       :     3.767226  s :     3.767226
      pz      :     1.888129  p :     5.357690
      px      :     1.833190
      py      :     1.636370
      dz2     :     0.008733  d :     0.050553
      dxz     :     0.005109
      dyz     :     0.009080
      dx2y2   :     0.012963
      dxy     :     0.014668
  3 O s       :     3.561490  s :     3.561490
      pz      :     1.439605  p :     4.595365
      px      :     1.445482
      py      :     1.710278
      dz2     :     0.011150  d :     0.077970
      dxz     :     0.019347
      dyz     :     0.004668
      dx2y2   :     0.025972
      dxy     :     0.016833
  4 H s       :     0.830466  s :     0.830466
  5 H s       :     0.840771  s :     0.840771
  6 H s       :     0.842001  s :     0.842001
  7 H s       :     0.873785  s :     0.873785

SPIN
  0 C s       :     0.052768  s :     0.052768
      pz      :     0.432515  p :     0.584609
      px      :     0.101007
      py      :     0.051087
      dz2     :     0.000784  d :     0.000908
      dxz     :     0.000414
      dyz     :     0.000174
      dx2y2   :    -0.000555
      dxy     :     0.000090
  1 C s       :    -0.000311  s :    -0.000311
      pz      :     0.045951  p :     0.037812
      px      :    -0.002822
      py      :    -0.005317
      dz2     :     0.001519  d :     0.025333
      dxz     :     0.020548
      dyz     :     0.003937
      dx2y2   :     0.000001
      dxy     :    -0.000672
  2 F s       :     0.000165  s :     0.000165
      pz      :     0.013257  p :     0.009291
      px      :    -0.002383
      py      :    -0.001584
      dz2     :     0.000050  d :     0.000636
      dxz     :    -0.000081
      dyz     :     0.000689
      dx2y2   :    -0.000062
      dxy     :     0.000040
  3 O s       :     0.006392  s :     0.006392
      pz      :     0.248839  p :     0.276733
      px      :     0.020995
      py      :     0.006899
      dz2     :     0.001204  d :     0.002882
      dxz     :     0.001166
      dyz     :     0.000727
      dx2y2   :    -0.000026
      dxy     :    -0.000189
  4 H s       :    -0.014726  s :    -0.014726
  5 H s       :    -0.016428  s :    -0.016428
  6 H s       :    -0.006775  s :    -0.006775
  7 H s       :     0.040713  s :     0.040713


                      *****************************
                      * MAYER POPULATION ANALYSIS *
                      *****************************

  NA   - Mulliken gross atomic population
  ZA   - Total nuclear charge
  QA   - Mulliken gross atomic charge
  VA   - Mayer's total valence
  BVA  - Mayer's bonded valence
  FA   - Mayer's free valence

  ATOM       NA         ZA         QA         VA         BVA        FA
  0 C      6.5108     6.0000    -0.5108     3.8287     3.2334     0.5953
  1 C      5.5391     6.0000     0.4609     3.9932     3.8628     0.1304
  2 F      9.3535     9.0000    -0.3535     1.2022     0.8969     0.3052
  3 O      8.4265     8.0000    -0.4265     2.2615     1.9962     0.2653
  4 H      0.7678     1.0000     0.2322     0.9235     0.8903     0.0331
  5 H      0.7861     1.0000     0.2139     0.9229     0.8888     0.0341
  6 H      0.7903     1.0000     0.2097     0.9246     0.8912     0.0334
  7 H      0.8258     1.0000     0.1742     0.9177     0.8823     0.0354

  Mayer bond orders larger than 0.100000
B(  0-C ,  1-C ) :   0.3968 B(  0-C ,  3-O ) :   0.1166 B(  0-C ,  4-H ) :   0.8990 
B(  0-C ,  5-H ) :   0.8994 B(  0-C ,  6-H ) :   0.9003 B(  1-C ,  2-F ) :   0.8195 
B(  1-C ,  3-O ) :   1.8030 B(  1-C ,  7-H ) :   0.8497 


----------------------------------
MP2 DERIVATIVE INTEGRAL GENERATION
----------------------------------


Input Wavefunction Amplitudes       ... input.mp2tbb.tmp
Input Correlated Electron Density   ... input.pmp2re
Input Energy Weighted Density       ... input.wmp2.tmp
Input SCF Electron Density          ... input.scfp

One-Electron Terms    ...
                        ... One-Electron Terms done
Prescreening matrices              ... done

Batch handling in the gradient evaluation:
Memory available                      ...  256.0 MB
Memory per occupied orbital in Q2     ...    1.0 MB
Memory per occupied orbital in Q3     ...    0.0 MB
Total memory requirement per |i>      ...    1.0 MB
Max. Number of orbitals possible      ...    245
Number of orbitals treated per batch  ...     33
Number of batches to be done          ...      1
Batch   0: i=    0 ...    32

---------------------------------------
MP2 TOTAL ENERGY:     -252.861767783 Eh
---------------------------------------

The final MP2 gradient
  0:   0.00000634   0.00000664   0.00001860
  1:   0.00002992  -0.00000645  -0.00003830
  2:   0.00000374  -0.00000150   0.00000381
  3:  -0.00002563   0.00000927  -0.00000265
  4:  -0.00001441  -0.00000118   0.00001798
  5:   0.00000910  -0.00000023   0.00001365
  6:   0.00000180   0.00000251  -0.00001664
  7:  -0.00001086  -0.00000905   0.00000357

-----------------------------------
NORM OF THE MP2 GRADIENT:  0.000070
-----------------------------------

Maximum memory used throughout the entire MP2-calculation: 111.3 MB

-------------------------   --------------------
FINAL SINGLE POINT ENERGY      -252.861767783231
-------------------------   --------------------

------------------------------------------------------------------------------
                         ORCA GEOMETRY RELAXATION STEP
------------------------------------------------------------------------------

Reading the OPT-File                    .... done
Getting information on internals        .... done
Copying old internal coords+grads       .... done
Making the new internal coordinates     .... (new redundants).... done
Validating the new internal coordinates .... (new redundants).... done
Calculating the B-matrix                .... done
Calculating the G,G- and P matrices     .... done
Transforming gradient to internals      .... done
Projecting the internal gradient        .... done
Number of atoms                         ....   8
Number of internal coordinates          ....  28
Current Energy                          ....  -252.861767783 Eh
Current gradient norm                   ....     0.000070107 Eh/bohr
Maximum allowed component of the step   ....  0.300
Current trust radius                    ....  0.300
Evaluating the initial hessian          ....  (Almloef) done
Projecting the Hessian                  .... done
Diagonalizing the Hessian               .... done
Dimension of the hessian                ....  28
Lowest eigenvalues of the Hessian:
  0.001910162  0.082855002  0.123893351  0.130201328  0.168857458
Hessian has   0 negative eigenvalues
Taking P-RFO step
Searching for lambda that maximizes along the lowest mode
TS mode is mode number   0 with eigenvalue   0.00191016 and components:
   1.    0.00000000
   2.    0.00000000
   3.    0.00000000
   4.   -0.00000000
   5.    0.00000000
   6.    0.00000000
   7.   -0.00000000
   8.   -0.00000000
   9.   -0.00000000
  10.    0.00000000
  11.    0.00000000
  12.   -0.00000000
  13.    0.00000000
  14.   -0.00000000
  15.   -0.00000000
  16.    0.00000000
  17.    0.00000000
  18.   -0.00000000
  19.    0.00000000
  20.    0.33333333
  21.    0.33333333
  22.    0.33333333
  23.    0.33333333
  24.    0.33333333
  25.    0.33333333
  26.    0.33333333
  27.    0.33333333
  28.    0.33333333

Lambda that maximizes along the TS mode:       0.00191039
Searching for lambda that minimizes along all other modes
In cycle   1: lambdaN =  -0.00000002   step =   0.00000002
In cycle   2: lambdaN =  -0.00000002   step =   0.00000000
Lambda that minimizes along all other modes:  -0.00000002
Calculated stepsize too large (   0.9000 >    0.3000). Scaled with    0.3333.
The final length of the internal step   ....       0.3000
Converting the step to cartesian space:
 Initial RMS(Int)=    0.0566946710
Transforming coordinates:
 Iter   0:  RMS(Cart)=    0.0534665225 RMS(Int)=    0.0566587956
 Iter   1:  RMS(Cart)=    0.0013737348 RMS(Int)=    0.0012593021
 Iter   2:  RMS(Cart)=    0.0000705996 RMS(Int)=    0.0000746931
 Iter   3:  RMS(Cart)=    0.0000036284 RMS(Int)=    0.0000033332
 Iter   4:  RMS(Cart)=    0.0000001867 RMS(Int)=    0.0000001971
 Iter   5:  RMS(Cart)=    0.0000000096 RMS(Int)=    0.0000000088
done
Storing new coordinates                 .... done

                                .--------------------.
          ----------------------|Geometry convergence|-------------------------
          Item                value                   Tolerance       Converged
          ---------------------------------------------------------------------
          RMS gradient        0.0000131404            0.0000080000      NO
          MAX gradient        0.0000358096            0.0000300000      NO
          RMS step            0.0566946710            0.0001000000      NO
          MAX step            0.0999999890            0.0002000000      NO
          ........................................................
          Max(Bonds)      0.0001      Max(Angles)    0.00
          Max(Dihed)        5.73      Max(Improp)    0.00
          ---------------------------------------------------------------------

The optimization has not yet converged - more geometry cycles are needed


    ---------------------------------------------------------------------------
                         Redundant Internal Coordinates
                            (Angstroem and degrees)

        Definition                    Value    dE/dq     Step     New-Value  comp.(TS mode)
    ----------------------------------------------------------------------------
     1. B(C   1,C   0)                1.9400 -0.000031  0.0001    1.9400   
     2. B(F   2,C   1)                1.3832  0.000001 -0.0000    1.3832   
     3. B(O   3,C   1)                1.2067  0.000025 -0.0000    1.2067   
     4. B(H   4,C   0)                1.0827 -0.000006  0.0000    1.0827   
     5. B(H   5,C   0)                1.0829 -0.000005  0.0000    1.0829   
     6. B(H   6,C   0)                1.0846 -0.000001  0.0000    1.0846   
     7. B(H   7,C   1)                1.1010  0.000002 -0.0000    1.1010   
     8. A(C   1,C   0,H   5)          103.78 -0.000013    0.00    103.78   
     9. A(H   4,C   0,H   6)          115.91  0.000004   -0.00    115.91   
    10. A(C   1,C   0,H   4)           99.64 -0.000036    0.00     99.64   
    11. A(H   4,C   0,H   5)          115.80  0.000012   -0.00    115.80   
    12. A(H   5,C   0,H   6)          116.73 -0.000004    0.00    116.73   
    13. A(C   1,C   0,H   6)          100.97  0.000030   -0.00    100.96   
    14. A(O   3,C   1,H   7)          125.18 -0.000005    0.00    125.18   
    15. A(F   2,C   1,O   3)          121.30 -0.000004    0.00    121.30   
    16. A(F   2,C   1,H   7)          107.61  0.000000   -0.00    107.61   
    17. A(C   0,C   1,H   7)           93.70  0.000008   -0.00     93.70   
    18. A(C   0,C   1,O   3)          102.22  0.000009   -0.00    102.22   
    19. A(C   0,C   1,F   2)           97.69  0.000002   -0.00     97.69   
    20. D(F   2,C   1,C   0,H   5)    175.33 -0.000003   -5.73    169.60          0.33
    21. D(F   2,C   1,C   0,H   6)     54.05 -0.000006   -5.73     48.32          0.33
    22. D(O   3,C   1,C   0,H   4)     59.52 -0.000009   -5.73     53.79          0.33
    23. D(O   3,C   1,C   0,H   5)    -60.23 -0.000005   -5.73    -65.96          0.33
    24. D(O   3,C   1,C   0,H   6)    178.50 -0.000008   -5.73    172.77          0.33
    25. D(H   7,C   1,C   0,H   4)   -173.26 -0.000010   -5.73   -178.99          0.33
    26. D(H   7,C   1,C   0,H   5)     66.99 -0.000005   -5.73     61.26          0.33
    27. D(H   7,C   1,C   0,H   6)    -54.29 -0.000008   -5.73    -60.02          0.33
    28. D(F   2,C   1,C   0,H   4)    -64.92 -0.000008   -5.73    -70.65          0.33
    ----------------------------------------------------------------------------

         *************************************************************
         *                GEOMETRY OPTIMIZATION CYCLE   2            *
         *************************************************************
---------------------------------
CARTESIAN COORDINATES (ANGSTROEM)
---------------------------------
  C      1.110909   -0.001990   -0.125126
  C      0.363725    0.569619    1.571536
  F      1.064190    1.756276    1.691899
  O     -0.821345    0.561483    1.344460
  H      0.643417    0.720782   -0.781819
  H      0.766679   -1.023640   -0.227479
  H      2.170507    0.139714    0.057919
  H      0.904281   -0.196316    2.148942

----------------------------
CARTESIAN COORDINATES (A.U.)
----------------------------
  NO LB      ZA    FRAG     MASS         X           Y           Z
   0 C     6.0000    0    12.011    2.099314   -0.003760   -0.236453
   1 C     6.0000    0    12.011    0.687340    1.076424    2.969772
   2 F     9.0000    0    18.998    2.011027    3.318880    3.197226
   3 O     8.0000    0    15.999   -1.552118    1.061048    2.540662
   4 H     1.0000    0     1.008    1.215883    1.362081   -1.477424
   5 H     1.0000    0     1.008    1.448814   -1.934400   -0.429874
   6 H     1.0000    0     1.008    4.101664    0.264022    0.109452
   7 H     1.0000    0     1.008    1.708844   -0.370983    4.060911

--------------------------------
INTERNAL COORDINATES (ANGSTROEM)
--------------------------------
 C      0   0   0     0.000000000000     0.00000000     0.00000000
 C      1   0   0     1.940021149138     0.00000000     0.00000000
 F      2   1   0     1.383218041970    97.69126914     0.00000000
 O      2   1   3     1.206656589898   102.22118928   124.44578262
 H      1   2   3     1.082678972346    99.64028808   289.34774509
 H      1   2   3     1.082931130896   103.78045983   169.59898344
 H      1   2   3     1.084589192183   100.96294613    48.32026040
 H      2   1   3     1.101024879917    93.70294643   251.65910859

---------------------------
INTERNAL COORDINATES (A.U.)
---------------------------
 C      0   0   0     0.000000000000     0.00000000     0.00000000
 C      1   0   0     3.666108665887     0.00000000     0.00000000
 F      2   1   0     2.613903282823    97.69126914     0.00000000
 O      2   1   3     2.280250492599   102.22118928   124.44578262
 H      1   2   3     2.045966748689    99.64028808   289.34774509
 H      1   2   3     2.046443259292   103.78045983   169.59898344
 H      1   2   3     2.049576541037   100.96294613    48.32026040
 H      2   1   3     2.080635489676    93.70294643   251.65910859

------------------------------------------------------------------------------
                   ___                                                        
                  /   \      - P O W E R E D   B Y -                         
                 /     \                                                     
                 |  |  |   _    _      __       _____    __    __             
                 |  |  |  | |  | |    /  \     |  _  \  |  |  /  |          
[...]
AutoCI program output          ... >input.lastautoci

	<< Calculating on displaced geometry   1 (of  48) >>
	<< Calculating on displaced geometry   2 (of  48) >>
	<< Calculating on displaced geometry   3 (of  48) >>
	<< Calculating on displaced geometry   4 (of  48) >>
	<< Calculating on displaced geometry   5 (of  48) >>
	<< Calculating on displaced geometry   6 (of  48) >>
	<< Calculating on displaced geometry   7 (of  48) >>
	<< Calculating on displaced geometry   8 (of  48) >>
	<< Calculating on displaced geometry   9 (of  48) >>
	<< Calculating on displaced geometry  10 (of  48) >>
	<< Calculating on displaced geometry  11 (of  48) >>
	<< Calculating on displaced geometry  12 (of  48) >>
	<< Calculating on displaced geometry  13 (of  48) >>
	<< Calculating on displaced geometry  14 (of  48) >>
	<< Calculating on displaced geometry  15 (of  48) >>
	<< Calculating on displaced geometry  16 (of  48) >>
	<< Calculating on displaced geometry  17 (of  48) >>
	<< Calculating on displaced geometry  18 (of  48) >>
	<< Calculating on displaced geometry  19 (of  48) >>
	<< Calculating on displaced geometry  20 (of  48) >>
	<< Calculating on displaced geometry  21 (of  48) >>
	<< Calculating on displaced geometry  22 (of  48) >>
	<< Calculating on displaced geometry  23 (of  48) >>
	<< Calculating on displaced geometry  24 (of  48) >>
	<< Calculating on displaced geometry  25 (of  48) >>
	<< Calculating on displaced geometry  26 (of  48) >>
	<< Calculating on displaced geometry  27 (of  48) >>
	<< Calculating on displaced geometry  28 (of  48) >>
	<< Calculating on displaced geometry  29 (of  48) >>
	<< Calculating on displaced geometry  30 (of  48) >>
	<< Calculating on displaced geometry  31 (of  48) >>
	<< Calculating on displaced geometry  32 (of  48) >>
	<< Calculating on displaced geometry  33 (of  48) >>
	<< Calculating on displaced geometry  34 (of  48) >>
	<< Calculating on displaced geometry  35 (of  48) >>
	<< Calculating on displaced geometry  36 (of  48) >>
	<< Calculating on displaced geometry  37 (of  48) >>
	<< Calculating on displaced geometry  38 (of  48) >>
	<< Calculating on displaced geometry  39 (of  48) >>
	<< Calculating on displaced geometry  40 (of  48) >>
	<< Calculating on displaced geometry  41 (of  48) >>
	<< Calculating on displaced geometry  42 (of  48) >>
	<< Calculating on displaced geometry  43 (of  48) >>
	<< Calculating on displaced geometry  44 (of  48) >>
	<< Calculating on displaced geometry  45 (of  48) >>
	<< Calculating on displaced geometry  46 (of  48) >>
	<< Calculating on displaced geometry  47 (of  48) >>
	<< Calculating on displaced geometry  48 (of  48) >>

-----------------------
VIBRATIONAL FREQUENCIES
-----------------------

Scaling factor for frequencies =  1.000000000 (already applied!)

   0:         0.00 cm**-1
   1:         0.00 cm**-1
   2:         0.00 cm**-1
   3:         0.00 cm**-1
   4:         0.00 cm**-1
   5:         0.00 cm**-1
   6:      -789.28 cm**-1 ***imaginary mode***
   7:       189.04 cm**-1
   8:       273.59 cm**-1
   9:       422.24 cm**-1
  10:       628.88 cm**-1
  11:       721.90 cm**-1
  12:       770.97 cm**-1
  13:       984.16 cm**-1
  14:      1064.04 cm**-1
  15:      1183.82 cm**-1
  16:      1392.95 cm**-1
  17:      1488.75 cm**-1
  18:      1499.78 cm**-1
  19:      1734.82 cm**-1
  20:      3076.90 cm**-1
  21:      3179.32 cm**-1
  22:      3348.61 cm**-1
  23:      3363.67 cm**-1


------------
NORMAL MODES
------------

These modes are the cartesian displacements weighted by the diagonal matrix
M(i,i)=1/sqrt(m[i]) where m[i] is the mass of the displaced atom
Thus, these vectors are normalized but *not* orthogonal

                  0          1          2          3          4          5    
      0       0.000000   0.000000   0.000000   0.000000   0.000000   0.000000
      1       0.000000   0.000000   0.000000   0.000000   0.000000   0.000000
      2       0.000000   0.000000   0.000000   0.000000   0.000000   0.000000
      3       0.000000   0.000000   0.000000   0.000000   0.000000   0.000000
      4       0.000000   0.000000   0.000000   0.000000   0.000000   0.000000
      5       0.000000   0.000000   0.000000   0.000000   0.000000   0.000000
      6       0.000000   0.000000   0.000000   0.000000   0.000000   0.000000
      7       0.000000   0.000000   0.000000   0.000000   0.000000   0.000000
      8       0.000000   0.000000   0.000000   0.000000   0.000000   0.000000
      9       0.000000   0.000000   0.000000   0.000000   0.000000   0.000000
     10       0.000000   0.000000   0.000000   0.000000   0.000000   0.000000
     11       0.000000   0.000000   0.000000   0.000000   0.000000   0.000000
     12       0.000000   0.000000   0.000000   0.000000   0.000000   0.000000
     13       0.000000   0.000000   0.000000   0.000000   0.000000   0.000000
     14       0.000000   0.000000   0.000000   0.000000   0.000000   0.000000
     15       0.000000   0.000000   0.000000   0.000000   0.000000   0.000000
     16       0.000000   0.000000   0.000000   0.000000   0.000000   0.000000
     17       0.000000   0.000000   0.000000   0.000000   0.000000   0.000000
     18       0.000000   0.000000   0.000000   0.000000   0.000000   0.000000
     19       0.000000   0.000000   0.000000   0.000000   0.000000   0.000000
     20       0.000000   0.000000   0.000000   0.000000   0.000000   0.000000
     21       0.000000   0.000000   0.000000   0.000000   0.000000   0.000000
     22       0.000000   0.000000   0.000000   0.000000   0.000000   0.000000
     23       0.000000   0.000000   0.000000   0.000000   0.000000   0.000000
                  6          7          8          9         10         11    
      0      -0.301166   0.015137   0.167995   0.150987   0.014905  -0.057088
      1       0.149379   0.017678   0.204254  -0.113229  -0.034068  -0.059581
      2       0.481657   0.014835   0.115987  -0.094466   0.008111  -0.058924
      3       0.346123   0.002701  -0.121569   0.028356   0.186095   0.013142
      4      -0.174239  -0.003885  -0.084128  -0.007625  -0.173818  -0.012152
      5      -0.485072   0.009909  -0.007959  -0.265935   0.113023   0.026694
      6       0.008036  -0.016574   0.073989  -0.093486  -0.293839   0.012046
      7       0.035171   0.013321  -0.152497   0.021260  -0.120275   0.037708
      8       0.023304  -0.043760  -0.221756   0.092332  -0.075305   0.015005
      9      -0.020111   0.001165  -0.153344  -0.071755   0.198272   0.003032
     10      -0.028954  -0.033522   0.048349   0.109809   0.297712   0.001658
     11      -0.056481   0.029049   0.157789   0.217688  -0.003353   0.004616
     12       0.041079   0.455460   0.051005   0.372903  -0.274521   0.140226
     13      -0.060101   0.379565   0.176197  -0.222288   0.200907   0.007838
     14      -0.022715   0.156495   0.158395  -0.375280   0.478678  -0.108881
     15       0.024864  -0.418203   0.510754   0.114004   0.139047   0.358115
     16       0.065084   0.231416   0.096497  -0.115059  -0.033414  -0.156733
     17      -0.023840  -0.295094  -0.107473   0.001552  -0.388075  -0.600255
     18      -0.225277   0.026557   0.099550   0.129408   0.068235  -0.201460
     19       0.092110  -0.519191   0.516552  -0.191433   0.043388   0.206878
     20       0.249783   0.176332   0.324082   0.053707  -0.276927   0.570053
     21      -0.208613   0.017512  -0.175114   0.147552   0.063245  -0.048395
     22      -0.004198   0.024855  -0.113877  -0.174744  -0.192219   0.059755
     23       0.294717   0.031109   0.012833  -0.580894   0.215441   0.167051
                 12         13         14         15         16         17    
      0       0.041442  -0.038524  -0.002993  -0.045344   0.001155  -0.019366
      1      -0.081874  -0.018193   0.001909   0.026748  -0.001899   0.077874
      2       0.027534   0.051086   0.025017   0.107490  -0.003367  -0.031056
      3      -0.030071  -0.010538   0.062750  -0.023635   0.018281   0.000649
      4       0.003831   0.126612   0.313472  -0.009650   0.065249  -0.001727
      5      -0.061949  -0.016478  -0.050165   0.089151   0.005789  -0.000579
      6       0.040240  -0.017587  -0.048885   0.008769  -0.007508   0.000507
      7       0.056135  -0.062882  -0.176965   0.019667   0.017994   0.000149
      8       0.026415  -0.007043   0.012424  -0.014804  -0.011638   0.000117
      9      -0.049233   0.051992   0.001094  -0.007561   0.045999  -0.002072
     10      -0.018587  -0.016743  -0.043261   0.001871  -0.027778   0.000681
     11       0.008243  -0.025134   0.035636  -0.025300   0.016713  -0.000666
     12      -0.348691  -0.136993   0.115590   0.238816  -0.049029  -0.288656
     13       0.222665   0.140843  -0.100683  -0.200933  -0.011028  -0.017821
     14       0.646523   0.315497  -0.190576  -0.365936   0.019132   0.052381
     15       0.147021  -0.016789   0.189809   0.244281  -0.009747   0.513658
     16      -0.065199  -0.020377  -0.028836  -0.032380   0.002762  -0.168123
     17      -0.442211   0.054409  -0.378281  -0.426772  -0.007173   0.147877
     18       0.118321  -0.133673   0.093826   0.089351  -0.007802   0.009003
     19      -0.012263   0.126890  -0.086002  -0.136643  -0.010330  -0.749096
     20      -0.387931   0.428374  -0.369642  -0.439420   0.040892   0.174763
     21      -0.029148   0.378322  -0.207292   0.204232  -0.753588   0.012364
     22       0.021745  -0.088340   0.479468  -0.234126  -0.634513   0.014091
     23      -0.034964  -0.678991   0.438374  -0.430405  -0.127629   0.010300
                 18         19         20         21         22         23    
      0      -0.074386   0.064869   0.000504  -0.015651   0.089665   0.007576
      1      -0.029047  -0.031593  -0.000794   0.006364   0.019810  -0.093794
      2      -0.026237  -0.100018   0.000894   0.019071   0.036611   0.030803
      3       0.002363   0.539438  -0.046698  -0.002289   0.002014   0.000433
      4       0.003641   0.087846   0.055726   0.001117  -0.000580  -0.000890
      5       0.001318   0.225798  -0.043600   0.000313   0.001193   0.000578
      6      -0.000190  -0.006830   0.000278   0.000150  -0.000220   0.000068
      7       0.000203  -0.003406   0.000635  -0.000162  -0.000086   0.000278
      8      -0.000139  -0.019416  -0.000147  -0.000201   0.000007  -0.000011
      9      -0.000902  -0.451214   0.002837   0.000827  -0.000798  -0.000100
     10      -0.001398  -0.014761  -0.000402  -0.000087  -0.000076   0.000201
     11      -0.000291  -0.087028  -0.000191  -0.000038  -0.000449  -0.000111
     12       0.555896  -0.103821  -0.000054  -0.215579  -0.145091  -0.294673
     13       0.477695   0.066640   0.003406   0.383205   0.287381   0.521410
     14       0.169623   0.137232  -0.005764  -0.308696  -0.231934  -0.438926
     15       0.383928  -0.107805   0.004409  -0.211488  -0.176039   0.249537
     16      -0.252770   0.012350   0.006223  -0.512049  -0.463617   0.606578
     17       0.374950   0.147891  -0.002838  -0.056406  -0.053144   0.079072
     18      -0.029265   0.028024  -0.022224   0.616185  -0.746529  -0.045012
     19       0.122898   0.035447  -0.000183   0.053032  -0.059761  -0.014653
     20      -0.239124   0.126153  -0.001613   0.133997  -0.151494  -0.006002
     21      -0.034467   0.273288   0.518026   0.008691  -0.007951  -0.004989
     22      -0.026730  -0.486241  -0.669593  -0.008902   0.009710   0.006461
     23      -0.001274  -0.162793   0.524871   0.004535  -0.006895  -0.006101


-----------
IR SPECTRUM
-----------

 Mode   freq       eps      Int      T**2         TX        TY        TZ
       cm**-1   L/(mol*cm) km/mol    a.u.
----------------------------------------------------------------------------
  7:    189.04   0.000062    0.31  0.000102  ( 0.004889  0.008673  0.001636)
  8:    273.59   0.000244    1.23  0.000279  ( 0.012563 -0.001695 -0.010863)
  9:    422.24   0.009078   45.88  0.006709  ( 0.026358 -0.031062 -0.071063)
 10:    628.88   0.001821    9.20  0.000904  ( 0.017342 -0.011304  0.021799)
 11:    721.90   0.000922    4.66  0.000399  (-0.017523 -0.005763  0.007635)
 12:    770.97   0.002363   11.94  0.000957  (-0.007460 -0.016074 -0.025348)
 13:    984.16   0.014556   73.56  0.004615  ( 0.030549  0.055540  0.024445)
 14:   1064.04   0.028182  142.42  0.008265  ( 0.017172  0.089114  0.005404)
 15:   1183.82   0.001223    6.18  0.000322  (-0.008530 -0.005002  0.014989)
 16:   1392.95   0.003089   15.61  0.000692  (-0.010605  0.016225  0.017782)
 17:   1488.75   0.000819    4.14  0.000172  ( 0.003053 -0.011875  0.004621)
 18:   1499.78   0.001006    5.08  0.000209  ( 0.010397  0.006479  0.007697)
 19:   1734.82   0.030727  155.28  0.005527  ( 0.068350  0.023732  0.017097)
 20:   3076.90   0.006102   30.84  0.000619  (-0.004436  0.018376 -0.016171)
 21:   3179.32   0.000313    1.58  0.000031  (-0.002697  0.000954 -0.004745)
 22:   3348.61   0.000044    0.22  0.000004  ( 0.001779  0.000941  0.000301)
 23:   3363.67   0.000020    0.10  0.000002  (-0.000267 -0.000540 -0.001233)

* The epsilon (eps) is given for a Dirac delta lineshape.
** The dipole moment derivative (T) already includes vibrational overlap.

The first frequency considered to be a vibration is 7
The total number of vibrations considered is 17


--------------------------
THERMOCHEMISTRY AT 298.15K
--------------------------

Temperature         ... 298.15 K
Pressure            ... 1.00 atm
Total Mass          ... 63.05 AMU

Throughout the following assumptions are being made:
  (1) The electronic state is orbitally nondegenerate
      but the spin degeneracy is treated
  (2) There are no thermally accessible electronically excited states
  (3) Hindered rotations indicated by low frequency modes are not
      treated as such but are treated as vibrations and this may
      cause some error
  (4) All equations used are the standard statistical mechanics
      equations for an ideal gas
  (5) All vibrations are strictly harmonic

freq.     189.04  E(vib)   ...       0.36 
freq.     273.59  E(vib)   ...       0.29 
freq.     422.24  E(vib)   ...       0.18 
freq.     628.88  E(vib)   ...       0.09 
freq.     721.90  E(vib)   ...       0.07 
freq.     770.97  E(vib)   ...       0.05 
freq.     984.16  E(vib)   ...       0.02 
freq.    1064.04  E(vib)   ...       0.02 
freq.    1183.82  E(vib)   ...       0.01 
freq.    1392.95  E(vib)   ...       0.00 
freq.    1488.75  E(vib)   ...       0.00 
freq.    1499.78  E(vib)   ...       0.00 
freq.    1734.82  E(vib)   ...       0.00 
freq.    3076.90  E(vib)   ...       0.00 
freq.    3179.32  E(vib)   ...       0.00 
freq.    3348.61  E(vib)   ...       0.00 
freq.    3363.67  E(vib)   ...       0.00 

------------
INNER ENERGY
------------

The inner energy is: U= E(el) + E(ZPE) + E(vib) + E(rot) + E(trans)
    E(el)   - is the total energy from the electronic structure calculation
              = E(kin-el) + E(nuc-el) + E(el-el) + E(nuc-nuc)
    E(ZPE)  - the the zero temperature vibrational energy from the frequency calculation
    E(vib)  - the the finite temperature correction to E(ZPE) due to population
              of excited vibrational states
    E(rot)  - is the rotational thermal energy
    E(trans)- is the translational thermal energy

Summary of contributions to the inner energy U:
Electronic energy                ...   -252.86176788 Eh
Zero point energy                ...      0.05769106 Eh      36.20 kcal/mol
Thermal vibrational correction   ...      0.00176220 Eh       1.11 kcal/mol
Thermal rotational correction    ...      0.00141627 Eh       0.89 kcal/mol
Thermal translational correction ...      0.00141627 Eh       0.89 kcal/mol
-----------------------------------------------------------------------
Total thermal energy                   -252.79948207 Eh


Summary of corrections to the electronic energy:
(perhaps to be used in another calculation)
Total thermal correction                  0.00459474 Eh       2.88 kcal/mol
Non-thermal (ZPE) correction              0.05769106 Eh      36.20 kcal/mol
-----------------------------------------------------------------------
Total correction                          0.06228581 Eh      39.08 kcal/mol


--------
ENTHALPY
--------

The enthalpy is H = U + kB*T
                kB is Boltzmann's constant
Total free energy                 ...   -252.79948207 Eh 
Thermal Enthalpy correction       ...      0.00094421 Eh       0.59 kcal/mol
-----------------------------------------------------------------------
Total Enthalpy                    ...   -252.79853786 Eh


Note: Only C1 symmetry has been detected, increase convergence thresholds 
      if your molecule has a higher symmetry. Symmetry factor of 1.0 is   
      used for the rotational entropy correction. 
 

Note: Rotational entropy computed according to Herzberg 
Infrared and Raman Spectra, Chapter V,1, Van Nostrand Reinhold, 1945 
Point Group:  C1, Symmetry Number:   1  
Rotational constants in cm-1:     0.324383     0.267214     0.164391 

Vibrational entropy computed according to the QRRHO of S. Grimme
Chem.Eur.J. 2012 18 9955


-------
ENTROPY
-------

The entropy contributions are T*S = T*(S(el)+S(vib)+S(rot)+S(trans))
     S(el)   - electronic entropy
     S(vib)  - vibrational entropy
     S(rot)  - rotational entropy
     S(trans)- translational entropy
The entropies will be listed as multiplied by the temperature to get
units of energy

Electronic entropy                ...      0.00065446 Eh      0.41 kcal/mol
Vibrational entropy               ...      0.00279412 Eh      1.75 kcal/mol
Rotational entropy                ...      0.01151769 Eh      7.23 kcal/mol
Translational entropy             ...      0.01821802 Eh     11.43 kcal/mol
-----------------------------------------------------------------------
Final entropy term                ...      0.03318428 Eh     20.82 kcal/mol

In case the symmetry of your molecule has not been determined correctly
or in case you have a reason to use a different symmetry number we print 
out the resulting rotational entropy values for sn=1,12 :
 --------------------------------------------------------
|  sn= 1 | S(rot)=       0.01151769 Eh      7.23 kcal/mol|
|  sn= 2 | S(rot)=       0.01086323 Eh      6.82 kcal/mol|
|  sn= 3 | S(rot)=       0.01048040 Eh      6.58 kcal/mol|
|  sn= 4 | S(rot)=       0.01020877 Eh      6.41 kcal/mol|
|  sn= 5 | S(rot)=       0.00999808 Eh      6.27 kcal/mol|
|  sn= 6 | S(rot)=       0.00982594 Eh      6.17 kcal/mol|
|  sn= 7 | S(rot)=       0.00968039 Eh      6.07 kcal/mol|
|  sn= 8 | S(rot)=       0.00955432 Eh      6.00 kcal/mol|
|  sn= 9 | S(rot)=       0.00944311 Eh      5.93 kcal/mol|
|  sn=10 | S(rot)=       0.00934363 Eh      5.86 kcal/mol|
|  sn=11 | S(rot)=       0.00925364 Eh      5.81 kcal/mol|
|  sn=12 | S(rot)=       0.00917148 Eh      5.76 kcal/mol|
 --------------------------------------------------------


-------------------
GIBBS FREE ENERGY
-------------------

The Gibbs free energy is G = H - T*S

Total enthalpy                    ...   -252.79853786 Eh 
Total entropy correction          ...     -0.03318428 Eh    -20.82 kcal/mol
-----------------------------------------------------------------------
Final Gibbs free energy         ...   -252.83172214 Eh

For completeness - the Gibbs free energy minus the electronic energy
G-E(el)                           ...      0.03004574 Eh     18.85 kcal/mol



Timings for individual modules:

Sum of individual times         ...     2402.799 sec (=  40.047 min)
GTO integral calculation        ...       37.967 sec (=   0.633 min)   1.6 %
SCF iterations                  ...      500.203 sec (=   8.337 min)  20.8 %
MP2 module                      ...      581.065 sec (=   9.684 min)  24.2 %
Geometry relaxation             ...        7.570 sec (=   0.126 min)   0.3 %
Numerical frequency calculation ...     1275.994 sec (=  21.267 min)  53.1 %
                             ****ORCA TERMINATED NORMALLY****
TOTAL RUN TIME: 0 days 0 hours 41 minutes 23 seconds 254 msec
