
                                 *****************
                                 * O   R   C   A *
                                 *****************

                                            #,                                       
                                            ###                                      
                                            ####                                     
                                            #####                                    
                                            ######                                   
                                           ########,                                 
                                     ,,################,,,,,                         
                               ,,#################################,,                 
                          ,,##########################################,,             
                       ,#########################################, ''#####,          
                    ,#############################################,,   '####,        
                  ,##################################################,,,,####,       
                ,###########''''           ''''###############################       
              ,#####''   ,,,,##########,,,,          '''####'''          '####       
            ,##' ,,,,###########################,,,                        '##       
           ' ,,###''''                  '''############,,,                           
         ,,##''                                '''############,,,,        ,,,,,,###''
      ,#''                                            '''#######################'''  
     '                                                          ''''####''''         
             ,#######,   #######,   ,#######,      ##                                
            ,#'     '#,  ##    ##  ,#'     '#,    #''#        ######   ,####,        
            ##       ##  ##   ,#'  ##            #'  '#       #        #'  '#        
            ##       ##  #######   ##           ,######,      #####,   #    #        
            '#,     ,#'  ##    ##  '#,     ,#' ,#      #,         ##   #,  ,#        
             '#######'   ##     ##  '#######'  #'      '#     #####' # '####'        



                  #######################################################
                  #                        -***-                        #
                  #          Department of theory and spectroscopy      #
                  #    Directorship and core code : Frank Neese         #
                  #        Max Planck Institute fuer Kohlenforschung    #
                  #                Kaiser Wilhelm Platz 1               #
                  #                 D-45470 Muelheim/Ruhr               #
                  #                      Germany                        #
                  #                                                     #
                  #                  All rights reserved                #
                  #                        -***-                        #
                  #######################################################


                         Program Version 5.0.1 -  RELEASE  -


 With contributions from (in alphabetic order):
   Daniel Aravena         : Magnetic Suceptibility
   Michael Atanasov       : Ab Initio Ligand Field Theory (pilot matlab implementation)
   Alexander A. Auer      : GIAO ZORA, VPT2 properties, NMR spectrum
   Ute Becker             : Parallelization
   Giovanni Bistoni       : ED, misc. LED, open-shell LED, HFLD
   Martin Brehm           : Molecular dynamics
   Dmytro Bykov           : SCF Hessian
   Vijay G. Chilkuri      : MRCI spin determinant printing, contributions to CSF-ICE
   Dipayan Datta          : RHF DLPNO-CCSD density
   Achintya Kumar Dutta   : EOM-CC, STEOM-CC
   Dmitry Ganyushin       : Spin-Orbit,Spin-Spin,Magnetic field MRCI
   Miquel Garcia          : C-PCM and meta-GGA Hessian, CC/C-PCM, Gaussian charge scheme
   Yang Guo               : DLPNO-NEVPT2, F12-NEVPT2, CIM, IAO-localization
   Andreas Hansen         : Spin unrestricted coupled pair/coupled cluster methods
   Benjamin Helmich-Paris : MC-RPA, TRAH-SCF, COSX integrals
   Lee Huntington         : MR-EOM, pCC
   Robert Izsak           : Overlap fitted RIJCOSX, COSX-SCS-MP3, EOM
   Marcus Kettner         : VPT2
   Christian Kollmar      : KDIIS, OOCD, Brueckner-CCSD(T), CCSD density, CASPT2, CASPT2-K
   Simone Kossmann        : Meta GGA functionals, TD-DFT gradient, OOMP2, MP2 Hessian
   Martin Krupicka        : Initial AUTO-CI
   Lucas Lang             : DCDCAS
   Marvin Lechner         : AUTO-CI (C++ implementation), FIC-MRCC
   Dagmar Lenk            : GEPOL surface, SMD
   Dimitrios Liakos       : Extrapolation schemes; Compound Job, initial MDCI parallelization
   Dimitrios Manganas     : Further ROCIS development; embedding schemes
   Dimitrios Pantazis     : SARC Basis sets
   Anastasios Papadopoulos: AUTO-CI, single reference methods and gradients
   Taras Petrenko         : DFT Hessian,TD-DFT gradient, ASA, ECA, R-Raman, ABS, FL, XAS/XES, NRVS
   Peter Pinski           : DLPNO-MP2, DLPNO-MP2 Gradient
   Christoph Reimann      : Effective Core Potentials
   Marius Retegan         : Local ZFS, SOC
   Christoph Riplinger    : Optimizer, TS searches, QM/MM, DLPNO-CCSD(T), (RO)-DLPNO pert. Triples
   Tobias Risthaus        : Range-separated hybrids, TD-DFT gradient, RPA, STAB
   Michael Roemelt        : Original ROCIS implementation
   Masaaki Saitow         : Open-shell DLPNO-CCSD energy and density
   Barbara Sandhoefer     : DKH picture change effects
   Avijit Sen             : IP-ROCIS
   Kantharuban Sivalingam : CASSCF convergence, NEVPT2, FIC-MRCI
   Bernardo de Souza      : ESD, SOC TD-DFT
   Georgi Stoychev        : AutoAux, RI-MP2 NMR, DLPNO-MP2 response
   Willem Van den Heuvel  : Paramagnetic NMR
   Boris Wezisla          : Elementary symmetry handling
   Frank Wennmohs         : Technical directorship


 We gratefully acknowledge several colleagues who have allowed us to
 interface, adapt or use parts of their codes:
   Stefan Grimme, W. Hujo, H. Kruse, P. Pracht,  : VdW corrections, initial TS optimization,
                  C. Bannwarth, S. Ehlert          DFT functionals, gCP, sTDA/sTD-DF
   Ed Valeev, F. Pavosevic, A. Kumar             : LibInt (2-el integral package), F12 methods
   Garnet Chan, S. Sharma, J. Yang, R. Olivares  : DMRG
   Ulf Ekstrom                                   : XCFun DFT Library
   Mihaly Kallay                                 : mrcc  (arbitrary order and MRCC methods)
   Jiri Pittner, Ondrej Demel                    : Mk-CCSD
   Frank Weinhold                                : gennbo (NPA and NBO analysis)
   Christopher J. Cramer and Donald G. Truhlar   : smd solvation model
   Lars Goerigk                                  : TD-DFT with DH, B97 family of functionals
   V. Asgeirsson, H. Jonsson                     : NEB implementation
   FAccTs GmbH                                   : IRC, NEB, NEB-TS, DLPNO-Multilevel, CI-OPT
                                                   MM, QMMM, 2- and 3-layer-ONIOM, Crystal-QMMM,
                                                   LR-CPCM, SF, NACMEs, symmetry and pop. for TD-DFT,
                                                   nearIR, NL-DFT gradient (VV10), updates on ESD,
                                                   ML-optimized integration grids
   S Lehtola, MJT Oliveira, MAL Marques          : LibXC Library
   Liviu Ungur et al                             : ANISO software


 Your calculation uses the libint2 library for the computation of 2-el integrals
 For citations please refer to: http://libint.valeyev.net

 Your ORCA version has been built with support for libXC version: 5.1.0
 For citations please refer to: https://tddft.org/programs/libxc/

 This ORCA versions uses:
   CBLAS   interface :  Fast vector & matrix operations
   LAPACKE interface :  Fast linear algebra routines
   SCALAPACK package :  Parallel linear algebra routines
   Shared memory     :  Shared parallel matrices
   BLAS/LAPACK       :  OpenBLAS 0.3.15  USE64BITINT DYNAMIC_ARCH NO_AFFINITY Zen SINGLE_THREADED
        Core in use  :  Zen
   Copyright (c) 2011-2014, The OpenBLAS Project




***************************************
The coordinates will be read from file: input.xyz
***************************************


================================================================================

----- Orbital basis set information -----
Your calculation utilizes the basis: 6-31G(d)
   H-He, Li-Ne : W. J. Hehre, R. Ditchfield and J.A. Pople, J. Chem. Phys. 56, 2257 (1972).
                 Note: He and Ne are unpublished basis sets taken from the Gaussian program.
                 Note: Li and B from J. D. Dill and J. A. Pople, J. Chem. Phys. 62, 2921 (1975).
   Na - Ar     : M. M. Francl, W. J. Pietro, W. J. Hehre, J. S. Binkley, M. S. Gordon, 
                 D. J. DeFrees and J. A. Pople, J. Chem. Phys. 77, 3654 (1982).
   K - Zn      : V. A. Rassolov, J. A. Pople, M. A. Ratner, and T. L. Windus, J. Chem. Phys. 109, 1223 (1998).

================================================================================
                                        WARNINGS
                       Please study these warnings very carefully!
================================================================================


WARNING: Geometry Optimization
  ===> : Switching off AutoStart
         For restart on a previous wavefunction, please use MOREAD

WARNING: Post HF methods need fully converged wavefunctions
  ===> : Setting SCFConvForced true
         You can overwrite this default with %scf ConvForced false 


INFO   : the flag for use of the SHARK integral package has been found!

================================================================================
                                       INPUT FILE
================================================================================
NAME = input.orc
|  1> ! MP2 UHF 6-31G(d) opt NumFreq NoFrozenCore VERYTIGHTSCF VERYTIGHTOPT
|  2> 
|  3> * XYZfile 0 2 input.xyz
|  4> 
|  5>                          ****END OF INPUT****
================================================================================

                       *****************************
                       * Geometry Optimization Run *
                       *****************************

Geometry optimization settings:
Update method            Update   .... BFGS
Choice of coordinates    CoordSys .... Z-matrix Internals
Initial Hessian          InHess   .... Almoef's Model

Convergence Tolerances:
Energy Change            TolE     ....  2.0000e-07 Eh
Max. Gradient            TolMAXG  ....  3.0000e-05 Eh/bohr
RMS Gradient             TolRMSG  ....  8.0000e-06 Eh/bohr
Max. Displacement        TolMAXD  ....  2.0000e-04 bohr
RMS Displacement         TolRMSD  ....  1.0000e-04 bohr
Strict Convergence                ....  False
------------------------------------------------------------------------------
                        ORCA OPTIMIZATION COORDINATE SETUP
------------------------------------------------------------------------------

The optimization will be done in new redundant internal coordinates
Making redundant internal coordinates   ...  (new redundants) done
Evaluating the initial hessian          ...  (Almloef) done
Evaluating the coordinates              ...  done
Calculating the B-matrix                .... done
Calculating the G-matrix                .... done
Diagonalizing the G-matrix              .... done
The first mode is                       ....   10
The number of degrees of freedom        ....   18

    -----------------------------------------------------------------
                    Redundant Internal Coordinates


    -----------------------------------------------------------------
         Definition                    Initial Value    Approx d2E/dq
    -----------------------------------------------------------------
      1. B(H   1,C   0)                  1.3644         0.131416   
      2. B(C   2,C   0)                  1.5397         0.360469   
      3. B(F   3,C   2)                  1.3737         0.552067   
      4. B(O   4,C   2)                  1.3216         0.719435   
      5. B(H   5,C   0)                  1.0963         0.351824   
      6. B(F   6,C   0)                  1.0960         1.531239   
      7. B(H   7,C   2)                  1.0957         0.352651   
      8. A(H   1,C   0,H   5)          108.7738         0.248822   
      9. A(C   2,C   0,F   6)          109.1787         0.458356   
     10. A(H   1,C   0,C   2)          112.2215         0.274807   
     11. A(C   2,C   0,H   5)          112.8067         0.321199   
     12. A(H   5,C   0,F   6)          106.8353         0.406702   
     13. A(H   1,C   0,F   6)          106.7077         0.343226   
     14. A(O   4,C   2,H   7)          120.5504         0.358421   
     15. A(C   0,C   2,O   4)          110.4529         0.402060   
     16. A(F   3,C   2,H   7)          104.8458         0.341331   
     17. A(C   0,C   2,H   7)          106.3080         0.321323   
     18. A(F   3,C   2,O   4)          107.5649         0.429022   
     19. A(C   0,C   2,F   3)          106.1674         0.382202   
     20. D(F   3,C   2,C   0,H   5)    -65.6072         0.010423   
     21. D(F   3,C   2,C   0,F   6)     53.0068         0.010423   
     22. D(O   4,C   2,C   0,H   1)    -72.5748         0.010423   
     23. D(O   4,C   2,C   0,H   5)     50.7186         0.010423   
     24. D(O   4,C   2,C   0,F   6)    169.3325         0.010423   
     25. D(H   7,C   2,C   0,H   1)     59.8290         0.010423   
     26. D(H   7,C   2,C   0,H   5)   -176.8776         0.010423   
     27. D(H   7,C   2,C   0,F   6)    -58.2637         0.010423   
     28. D(F   3,C   2,C   0,H   1)    171.0995         0.010423   
    -----------------------------------------------------------------

Number of atoms                         .... 8
Number of degrees of freedom            .... 28

         *************************************************************
         *                GEOMETRY OPTIMIZATION CYCLE   1            *
         *************************************************************
---------------------------------
CARTESIAN COORDINATES (ANGSTROEM)
---------------------------------
  C      0.923520    0.076960   -0.069800
  H      0.609490    0.449800    1.204540
  C      0.385280    1.069800   -1.116370
  F      0.935560    0.694790   -2.317860
  O     -0.927000    0.958380   -1.226610
  H      0.570160   -0.947650   -0.234870
  F      2.017530    0.048900   -0.129350
  H      0.844730    2.037720   -0.887080

----------------------------
CARTESIAN COORDINATES (A.U.)
----------------------------
  NO LB      ZA    FRAG     MASS         X           Y           Z
   0 C     6.0000    0    12.011    1.745200    0.145433   -0.131903
   1 H     1.0000    0     1.008    1.151769    0.849999    2.276251
   2 C     6.0000    0    12.011    0.728074    2.021629   -2.109634
   3 F     9.0000    0    18.998    1.767952    1.312963   -4.380121
   4 O     8.0000    0    15.999   -1.751776    1.811076   -2.317957
   5 H     1.0000    0     1.008    1.077446   -1.790799   -0.443840
   6 F     9.0000    0    18.998    3.812579    0.092408   -0.244436
   7 H     1.0000    0     1.008    1.596308    3.850733   -1.676338

--------------------------------
INTERNAL COORDINATES (ANGSTROEM)
--------------------------------
 C      0   0   0     0.000000000000     0.00000000     0.00000000
 H      1   0   0     1.364392517606     0.00000000     0.00000000
 C      1   2   0     1.539721509917   112.22150448     0.00000000
 F      3   1   2     1.373688028120   106.16735077   171.09947420
 O      3   1   2     1.321607382092   110.45292319   287.42524525
 H      1   2   3     1.096328895268   108.77381609   234.47075491
 F      1   2   3     1.095988798392   106.70774802   119.54713271
 H      3   1   2     1.095690345399   106.30800672    59.82903916

---------------------------
INTERNAL COORDINATES (A.U.)
---------------------------
 C      0   0   0     0.000000000000     0.00000000     0.00000000
 H      1   0   0     2.578328197447     0.00000000     0.00000000
 C      1   2   0     2.909651976250   112.22150448     0.00000000
 F      3   1   2     2.595894166593   106.16735077   171.09947420
 O      3   1   2     2.497476008722   110.45292319   287.42524525
 H      1   2   3     2.071761364761   108.77381609   234.47075491
 F      1   2   3     2.071118674806   106.70774802   119.54713271
 H      3   1   2     2.070554680385   106.30800672    59.82903916

---------------------
BASIS SET INFORMATION
---------------------
There are 4 groups of distinct atoms

 Group   1 Type C   : 10s4p1d contracted to 3s2p1d pattern {631/31/1}
 Group   2 Type H   : 4s contracted to 2s pattern {31}
 Group   3 Type F   : 10s4p1d contracted to 3s2p1d pattern {631/31/1}
 Group   4 Type O   : 10s4p1d contracted to 3s2p1d pattern {631/31/1}

Atom   0C    basis set group =>   1
Atom   1H    basis set group =>   2
Atom   2C    basis set group =>   1
Atom   3F    basis set group =>   3
Atom   4O    basis set group =>   4
Atom   5H    basis set group =>   2
Atom   6F    basis set group =>   3
Atom   7H    basis set group =>   2
------------------------------------------------------------------------------
                           ORCA GTO INTEGRAL CALCULATION
------------------------------------------------------------------------------
------------------------------------------------------------------------------
                   ___                                                        
                  /   \      - P O W E R E D   B Y -                         
                 /     \                                                     
                 |  |  |   _    _      __       _____    __    __             
                 |  |  |  | |  | |    /  \     |  _  \  |  |  /  |          
                  \  \/   | |  | |   /    \    | | | |  |  | /  /          
                 / \  \   | |__| |  /  /\  \   | |_| |  |  |/  /          
                |  |  |   |  __  | /  /__\  \  |    /   |      \           
                |  |  |   | |  | | |   __   |  |    \   |  |\   \          
                \     /   | |  | | |  |  |  |  | |\  \  |  | \   \       
                 \___/    |_|  |_| |__|  |__|  |_| \__\ |__|  \__/        
                                                                              
                      - O R C A' S   B I G   F R I E N D -                    
                                      &                                       
                       - I N T E G R A L  F E E D E R -                       
                                                                              
 v1 FN, 2020, v2 2021                                                         
------------------------------------------------------------------------------


Reading SHARK input file input.SHARKINP.tmp ... ok
----------------------
SHARK INTEGRAL PACKAGE
----------------------

Number of atoms                             ...      8
Number of basis functions                   ...     76
Number of shells                            ...     36
Maximum angular momentum                    ...      2
Integral batch strategy                     ... SHARK/LIBINT Hybrid
RI-J (if used) integral strategy            ... SPLIT-RIJ (Revised 2003 algorithm where possible)
Printlevel                                  ...      1
Contraction scheme used                     ... SEGMENTED contraction
Coulomb Range Separation                    ... NOT USED
Exchange Range Separation                   ... NOT USED
Finite Nucleus Model                        ... NOT USED
Auxiliary Coulomb fitting basis             ... NOT available
Auxiliary J/K fitting basis                 ... NOT available
Auxiliary Correlation fitting basis         ... NOT available
Auxiliary 'external' fitting basis          ... NOT available
Integral threshold                          ...     1.000000e-12
Primitive cut-off                           ...     1.000000e-14
Primitive pair pre-selection threshold      ...     1.000000e-14

Calculating pre-screening integrals         ... done (  0.2 sec) Dimension = 36
Organizing shell pair data                  ... done (  0.1 sec)
Shell pair information
Total number of shell pairs                 ...       666
Shell pairs after pre-screening             ...       656
Total number of primitive shell pairs       ...      3942
Primitive shell pairs kept                  ...      2944
          la=0 lb=0:    223 shell pairs
          la=1 lb=0:    208 shell pairs
          la=1 lb=1:     55 shell pairs
          la=2 lb=0:    105 shell pairs
          la=2 lb=1:     50 shell pairs
          la=2 lb=2:     15 shell pairs

Calculating one electron integrals          ... done (  0.0 sec)
Calculating Nuclear repulsion               ... done (  0.1 sec) ENN=    191.564269298495 Eh

SHARK setup successfully completed in   0.8 seconds

Maximum memory used throughout the entire GTOINT-calculation: 7.5 MB
-------------------------------------------------------------------------------
                                 ORCA SCF
-------------------------------------------------------------------------------

------------
SCF SETTINGS
------------
Hamiltonian:
 Ab initio Hamiltonian  Method          .... Hartree-Fock(GTOs)


General Settings:
 Integral files         IntName         .... input
 Hartree-Fock type      HFTyp           .... UHF
 Total Charge           Charge          ....    0
 Multiplicity           Mult            ....    2
 Number of Electrons    NEL             ....   41
 Basis Dimension        Dim             ....   76
 Nuclear Repulsion      ENuc            ....    191.5642692985 Eh

Convergence Acceleration:
 DIIS                   CNVDIIS         .... on
   Start iteration      DIISMaxIt       ....    12
   Startup error        DIISStart       ....  0.200000
   # of expansion vecs  DIISMaxEq       ....     5
   Bias factor          DIISBfac        ....   1.050
   Max. coefficient     DIISMaxC        ....  10.000
 Trust-Rad. Augm. Hess. CNVTRAH         .... auto
   Auto Start mean grad. ratio tolernc. ....  1.125000
   Auto Start start iteration           ....    20
   Auto Start num. interpolation iter.  ....    10
   Max. Number of Micro iterations      ....    16
   Max. Number of Macro iterations      .... Maxiter - #DIIS iter
   Number of Davidson start vectors     ....     2
   Converg. threshold I  (grad. norm)   ....   2.000e-06
   Converg. threshold II (energy diff.) ....   1.000e-09
   Grad. Scal. Fac. for Micro threshold ....   0.100
   Minimum threshold for Micro iter.    ....   0.010
   NR start threshold (gradient norm)   ....   0.001
   Initial trust radius                 ....   0.400
   Minimum AH scaling param. (alpha)    ....   1.000
   Maximum AH scaling param. (alpha)    .... 1000.000
   Orbital update algorithm             .... Taylor
   White noise on init. David. guess    .... on
   Maximum white noise                  ....   0.010
   Quad. conv. algorithm                .... NR
 SOSCF                  CNVSOSCF        .... off
 Level Shifting         CNVShift        .... on
   Level shift para.    LevelShift      ....    0.2500
   Turn off err/grad.   ShiftErr        ....    0.0010
 Zerner damping         CNVZerner       .... off
 Static damping         CNVDamp         .... on
   Fraction old density DampFac         ....    0.7000
   Max. Damping (<1)    DampMax         ....    0.9800
   Min. Damping (>=0)   DampMin         ....    0.0000
   Turn off err/grad.   DampErr         ....    0.1000
 Fernandez-Rico         CNVRico         .... off

SCF Procedure:
 Maximum # iterations   MaxIter         ....   125
 SCF integral mode      SCFMode         .... Direct
   Integral package                     .... SHARK and LIBINT hybrid scheme
 Reset frequency        DirectResetFreq ....    20
 Integral Threshold     Thresh          ....  1.000e-12 Eh
 Primitive CutOff       TCut            ....  1.000e-14 Eh

Convergence Tolerance:
 Convergence Check Mode ConvCheckMode   .... Total+1el-Energy
 Convergence forced     ConvForced      .... 1
 Energy Change          TolE            ....  1.000e-09 Eh
 1-El. energy change                    ....  1.000e-06 Eh
 DIIS Error             TolErr          ....  1.000e-08


Diagonalization of the overlap matrix:
Smallest eigenvalue                        ... 4.680e-03
Time for diagonalization                   ...    0.002 sec
Threshold for overlap eigenvalues          ... 1.000e-08
Number of eigenvalues below threshold      ... 0
Time for construction of square roots      ...    0.086 sec
Total time needed                          ...    0.088 sec

Time for model grid setup =    0.147 sec

------------------------------
INITIAL GUESS: MODEL POTENTIAL
------------------------------
Loading Hartree-Fock densities                     ... done
Calculating cut-offs                               ... done
Initializing the effective Hamiltonian             ... done
Setting up the integral package (SHARK)            ... done
Starting the Coulomb interaction                   ... done (   0.4 sec)
Reading the grid                                   ... done
Mapping shells                                     ... done
Starting the XC term evaluation                    ... done (   0.0 sec)
Transforming the Hamiltonian                       ... done (   0.0 sec)
Diagonalizing the Hamiltonian                      ... done (   0.0 sec)
Back transforming the eigenvectors                 ... done (   0.0 sec)
Now organizing SCF variables                       ... done
                      ------------------
                      INITIAL GUESS DONE (   0.6 sec)
                      ------------------
--------------
SCF ITERATIONS
--------------
ITER       Energy         Delta-E        Max-DP      RMS-DP      [F,P]     Damp
               ***  Starting incremental Fock matrix formation  ***
  0   -350.7979177497   0.000000000000 0.04500415  0.00136159  0.2382358 0.7000
  1   -350.8564458465  -0.058528096790 0.03709496  0.00104827  0.1313356 0.7000
                               ***Turning on DIIS***
  2   -350.8938270978  -0.037381251291 0.08990285  0.00242353  0.0614403 0.0000
  3   -350.7272254543   0.166601643471 0.03065686  0.00103570  0.0827951 0.0000
  4   -350.9973303710  -0.270104916711 0.02083131  0.00084832  0.0238188 0.0000
  5   -350.9515739834   0.045756387573 0.01535248  0.00086129  0.0183156 0.0000
  6   -351.0361477202  -0.084573736732 0.01107063  0.00063150  0.0125242 0.0000
  7   -351.0373206051  -0.001172884916 0.00496161  0.00027769  0.0060595 0.0000
  8   -351.0343620790   0.002958526070 0.00261903  0.00015873  0.0027155 0.0000
  9   -351.0338975708   0.000464508218 0.00165894  0.00008643  0.0020815 0.0000
 10   -351.0318836668   0.002013903958 0.00129845  0.00005355  0.0015018 0.0000
 11   -351.0327150894  -0.000831422597 0.00139379  0.00004607  0.0010407 0.0000
 12   -351.0318726801   0.000842409328 0.00131913  0.00003863  0.0005417 0.0000
 13   -351.0318350597   0.000037620415 0.00030007  0.00000854  0.0001088 0.0000
 14   -351.0319239387  -0.000088879053 0.00012770  0.00000515  0.0000954 0.0000
 15   -351.0318846880   0.000039250721 0.00011687  0.00000480  0.0000952 0.0000
 16   -351.0319403938  -0.000055705826 0.00012122  0.00000431  0.0000923 0.0000
 17   -351.0319321049   0.000008288978 0.00015559  0.00000449  0.0000875 0.0000
 18   -351.0319614912  -0.000029386351 0.00019812  0.00000485  0.0000806 0.0000
 19   -351.0319642347  -0.000002743464 0.00027630  0.00000641  0.0000715 0.0000
               *** Restarting incremental Fock matrix formation ***
                                   *** Resetting DIIS ***
 20   -351.0319168696   0.000047365103 0.00003854  0.00000165  0.0000590 0.0000
 21   -351.0319114175   0.000005452095 0.00004894  0.00000190  0.0000579 0.0000

 WARNING: the maximum gradient error descreased on average only by a factor   1.1
          during the last 20 iterations

                      *** Initiating the TRAH-SCF procedure ***

 --------------------------------------------------------------------------------------------
   Iter.        energy            ||Error||_2        Shift      TRadius  Mac/Mic        Rej.
 --------------------------------------------------------------------------------------------
    0       -351.031916989260     6.703658e-05                     0.400 (TRAH MAcro)   No
    0     dE    -1.453164e-08     2.529643e-04    -1.4532e-08      0.000 (TRAH MIcro)
    0     dE    -1.140613e-07     3.239018e-04    -1.1406e-07      0.002 (TRAH MIcro)
    0     dE    -1.639254e-07     2.452654e-04    -1.6392e-07      0.003 (TRAH MIcro)
    0     dE    -2.075206e-07     2.449463e-04    -2.0752e-07      0.003 (TRAH MIcro)
    0     dE    -2.159502e-07     3.974933e-05    -2.1595e-07      0.004 (TRAH MIcro)
    0     dE    -2.164883e-07     1.436712e-05    -2.1649e-07      0.004 (TRAH MIcro)
    0     dE    -2.165860e-07     6.578151e-06    -2.1658e-07      0.004 (TRAH MIcro)
    0     dE    -2.166121e-07     2.594934e-06    -2.1661e-07      0.004 (TRAH MIcro)
    0     dE    -2.166176e-07     1.969734e-06    -2.1661e-07      0.004 (TRAH MIcro)
    0     dE    -2.166205e-07     9.567553e-07    -2.1662e-07      0.004 (TRAH MIcro)
    0     dE    -2.166212e-07     4.950070e-07    -2.1662e-07      0.004 (TRAH MIcro)
    0     dE    -2.166213e-07     1.877596e-07    -2.1662e-07      0.004 (TRAH MIcro)
    1       -351.031917205866     2.014499e-06                           (NR   MAcro)
    1     dE    -1.911938e-12     4.003070e-07                           (NR   MIcro)
    1     dE    -1.991241e-12     1.822941e-07                           (NR   MIcro)
    2       -351.031917205868     1.822941e-07                           (NR   MAcro)

               *****************************************************
               *                     SUCCESS                       *
               *           SCF CONVERGED AFTER  39 CYCLES          *
               *****************************************************


----------------
TOTAL SCF ENERGY
----------------

Total Energy       :         -351.03191721 Eh           -9552.06408 eV

Components:
Nuclear Repulsion  :          191.56426930 Eh            5212.72878 eV
Electronic Energy  :         -542.59618650 Eh          -14764.79286 eV
One Electron Energy:         -865.76958573 Eh          -23558.78813 eV
Two Electron Energy:          323.17339922 Eh            8793.99527 eV

Virial components:
Potential Energy   :         -702.89938208 Eh          -19126.86458 eV
Kinetic Energy     :          351.86746487 Eh            9574.80049 eV
Virial Ratio       :            1.99762539


---------------
SCF CONVERGENCE
---------------

  Last Energy change         ...   -1.8190e-12  Tolerance :   1.0000e-09
  Last Orbital Gradient      ...    1.8229e-07  Tolerance :   2.0000e-06
  Last Orbital Rotation      ...    1.1530e-06

             **** THE GBW FILE WAS UPDATED (input.gbw) ****
             **** DENSITY input.scfp WAS UPDATED ****
             **** ENERGY FILE WAS UPDATED (input.en.tmp) ****
----------------------
UHF SPIN CONTAMINATION
----------------------

Expectation value of <S**2>     :     0.759345
Ideal value S*(S+1) for S=0.5   :     0.750000
Deviation                       :     0.009345

             **** THE GBW FILE WAS UPDATED (input.gbw) ****
             **** DENSITY input.scfp WAS UPDATED ****
----------------
ORBITAL ENERGIES
----------------
                 SPIN UP ORBITALS
  NO   OCC          E(Eh)            E(eV) 
   0   1.0000     -26.350558      -717.0351 
   1   1.0000     -26.285333      -715.2603 
   2   1.0000     -20.661103      -562.2172 
   3   1.0000     -11.374474      -309.5152 
   4   1.0000     -11.362712      -309.1951 
   5   1.0000      -1.817347       -49.4525 
   6   1.0000      -1.614768       -43.9401 
   7   1.0000      -1.452138       -39.5147 
   8   1.0000      -1.030042       -28.0289 
   9   1.0000      -0.927159       -25.2293 
  10   1.0000      -0.849404       -23.1135 
  11   1.0000      -0.827180       -22.5087 
  12   1.0000      -0.799949       -21.7677 
  13   1.0000      -0.749363       -20.3912 
  14   1.0000      -0.706404       -19.2222 
  15   1.0000      -0.663111       -18.0442 
  16   1.0000      -0.644869       -17.5478 
  17   1.0000      -0.592959       -16.1352 
  18   1.0000      -0.550009       -14.9665 
  19   1.0000      -0.481019       -13.0892 
  20   1.0000      -0.454177       -12.3588 
  21   0.0000       0.209091         5.6896 
  22   0.0000       0.262140         7.1332 
  23   0.0000       0.291523         7.9327 
  24   0.0000       0.322451         8.7744 
  25   0.0000       0.388654        10.5758 
  26   0.0000       0.447902        12.1880 
  27   0.0000       0.502133        13.6637 
  28   0.0000       0.722925        19.6718 
  29   0.0000       0.749925        20.4065 
  30   0.0000       0.783905        21.3311 
  31   0.0000       0.834069        22.6962 
  32   0.0000       0.888996        24.1908 
  33   0.0000       0.947088        25.7716 
  34   0.0000       1.030710        28.0470 
  35   0.0000       1.036602        28.2074 
  36   0.0000       1.084276        29.5047 
  37   0.0000       1.118122        30.4257 
  38   0.0000       1.144743        31.1500 
  39   0.0000       1.200033        32.6546 
  40   0.0000       1.268400        34.5149 
  41   0.0000       1.324593        36.0440 
  42   0.0000       1.416783        38.5526 
  43   0.0000       1.505090        40.9556 
  44   0.0000       1.532049        41.6892 
  45   0.0000       1.567579        42.6560 
  46   0.0000       1.639705        44.6186 
  47   0.0000       1.688094        45.9354 
  48   0.0000       1.706102        46.4254 
  49   0.0000       1.720173        46.8083 
  50   0.0000       1.833577        49.8942 
  51   0.0000       1.899548        51.6893 
  52   0.0000       1.913463        52.0680 
  53   0.0000       1.970618        53.6232 
  54   0.0000       2.019802        54.9616 
  55   0.0000       2.039683        55.5026 
  56   0.0000       2.089355        56.8542 
  57   0.0000       2.137869        58.1744 
  58   0.0000       2.156389        58.6783 
  59   0.0000       2.252381        61.2904 
  60   0.0000       2.343437        63.7682 
  61   0.0000       2.374240        64.6064 
  62   0.0000       2.397905        65.2503 
  63   0.0000       2.454592        66.7928 
  64   0.0000       2.497641        67.9643 
  65   0.0000       2.576300        70.1047 
  66   0.0000       2.675564        72.8058 
  67   0.0000       2.787355        75.8478 
  68   0.0000       2.860473        77.8374 
  69   0.0000       2.977804        81.0302 
  70   0.0000       3.047016        82.9135 
  71   0.0000       3.126004        85.0629 
  72   0.0000       3.151272        85.7505 
  73   0.0000       3.268344        88.9362 
  74   0.0000       3.421949        93.1160 
  75   0.0000       3.777475       102.7903 

                 SPIN DOWN ORBITALS
  NO   OCC          E(Eh)            E(eV) 
   0   1.0000     -26.349823      -717.0151 
   1   1.0000     -26.285848      -715.2743 
   2   1.0000     -20.621395      -561.1367 
   3   1.0000     -11.377987      -309.6108 
   4   1.0000     -11.359178      -309.0990 
   5   1.0000      -1.815240       -49.3952 
   6   1.0000      -1.612542       -43.8795 
   7   1.0000      -1.329509       -36.1778 
   8   1.0000      -1.010699       -27.5025 
   9   1.0000      -0.916983       -24.9524 
  10   1.0000      -0.845106       -22.9965 
  11   1.0000      -0.815541       -22.1920 
  12   1.0000      -0.774152       -21.0657 
  13   1.0000      -0.734398       -19.9840 
  14   1.0000      -0.684462       -18.6251 
  15   1.0000      -0.643642       -17.5144 
  16   1.0000      -0.586509       -15.9597 
  17   1.0000      -0.512301       -13.9404 
  18   1.0000      -0.496031       -13.4977 
  19   1.0000      -0.457364       -12.4455 
  20   0.0000       0.079676         2.1681 
  21   0.0000       0.212464         5.7814 
  22   0.0000       0.266248         7.2450 
  23   0.0000       0.297728         8.1016 
  24   0.0000       0.327755         8.9187 
  25   0.0000       0.390696        10.6314 
  26   0.0000       0.473843        12.8939 
  27   0.0000       0.517090        14.0707 
  28   0.0000       0.729666        19.8552 
  29   0.0000       0.759394        20.6642 
  30   0.0000       0.797632        21.7047 
  31   0.0000       0.844255        22.9733 
  32   0.0000       0.892910        24.2973 
  33   0.0000       0.949803        25.8454 
  34   0.0000       1.036205        28.1966 
  35   0.0000       1.050831        28.5946 
  36   0.0000       1.093489        29.7553 
  37   0.0000       1.144758        31.1505 
  38   0.0000       1.150779        31.3143 
  39   0.0000       1.264054        34.3967 
  40   0.0000       1.303028        35.4572 
  41   0.0000       1.373131        37.3648 
  42   0.0000       1.429112        38.8881 
  43   0.0000       1.511217        41.1223 
  44   0.0000       1.534375        41.7525 
  45   0.0000       1.574952        42.8566 
  46   0.0000       1.645579        44.7785 
  47   0.0000       1.691275        46.0219 
  48   0.0000       1.706852        46.4458 
  49   0.0000       1.722569        46.8735 
  50   0.0000       1.863277        50.7024 
  51   0.0000       1.913759        52.0760 
  52   0.0000       1.939067        52.7647 
  53   0.0000       1.991721        54.1975 
  54   0.0000       2.047609        55.7183 
  55   0.0000       2.068162        56.2775 
  56   0.0000       2.130174        57.9650 
  57   0.0000       2.157515        58.7090 
  58   0.0000       2.167364        58.9770 
  59   0.0000       2.261985        61.5517 
  60   0.0000       2.354599        64.0719 
  61   0.0000       2.388526        64.9951 
  62   0.0000       2.404593        65.4323 
  63   0.0000       2.464882        67.0729 
  64   0.0000       2.503617        68.1269 
  65   0.0000       2.585199        70.3469 
  66   0.0000       2.687258        73.1240 
  67   0.0000       2.794608        76.0452 
  68   0.0000       2.866251        77.9946 
  69   0.0000       2.988075        81.3097 
  70   0.0000       3.049302        82.9757 
  71   0.0000       3.139340        85.4258 
  72   0.0000       3.157982        85.9330 
  73   0.0000       3.278308        89.2073 
  74   0.0000       3.421985        93.1169 
  75   0.0000       3.778709       102.8239 

                    ********************************
                    * MULLIKEN POPULATION ANALYSIS *
                    ********************************

--------------------------------------------
MULLIKEN ATOMIC CHARGES AND SPIN POPULATIONS
--------------------------------------------
   0 C :    0.032077    0.087109
   1 H :    0.034731   -0.006139
   2 C :    0.545769   -0.138468
   3 F :   -0.464931   -0.002516
   4 O :   -0.337124    0.995138
   5 H :    0.143494   -0.002390
   6 F :   -0.148447    0.006385
   7 H :    0.194432    0.060881
Sum of atomic charges         :   -0.0000000
Sum of atomic spin populations:    1.0000000

-----------------------------------------------------
MULLIKEN REDUCED ORBITAL CHARGES AND SPIN POPULATIONS
-----------------------------------------------------
CHARGE
  0 C s       :     3.209972  s :     3.209972
      pz      :     0.921770  p :     2.612664
      px      :     0.699361
      py      :     0.991533
      dz2     :     0.020831  d :     0.145287
      dxz     :     0.034373
      dyz     :     0.010240
      dx2y2   :     0.042475
      dxy     :     0.037367
  1 H s       :     0.965269  s :     0.965269
  2 C s       :     3.009218  s :     3.009218
      pz      :     0.650492  p :     2.324930
      px      :     0.657742
      py      :     1.016696
      dz2     :     0.027068  d :     0.120084
      dxz     :     0.030294
      dyz     :     0.018865
      dx2y2   :     0.026688
      dxy     :     0.017168
  3 F s       :     3.985541  s :     3.985541
      pz      :     1.645657  p :     5.462592
      px      :     1.896270
      py      :     1.920665
      dz2     :     0.006542  d :     0.016798
      dxz     :     0.005010
      dyz     :     0.003806
      dx2y2   :     0.000556
      dxy     :     0.000884
  4 O s       :     3.954126  s :     3.954126
      pz      :     1.727001  p :     4.358674
      px      :     1.434743
      py      :     1.196930
      dz2     :     0.003482  d :     0.024325
      dxz     :     0.004740
      dyz     :     0.000698
      dx2y2   :     0.010013
      dxy     :     0.005392
  5 H s       :     0.856506  s :     0.856506
  6 F s       :     3.861316  s :     3.861316
      pz      :     1.885069  p :     5.261103
      px      :     1.469511
      py      :     1.906524
      dz2     :     0.002531  d :     0.026027
      dxz     :     0.008602
      dyz     :     0.000152
      dx2y2   :     0.006053
      dxy     :     0.008689
  7 H s       :     0.805568  s :     0.805568

SPIN
  0 C s       :     0.021762  s :     0.021762
      pz      :     0.034445  p :     0.064892
      px      :     0.006970
      py      :     0.023477
      dz2     :    -0.000056  d :     0.000455
      dxz     :    -0.000042
      dyz     :     0.000488
      dx2y2   :    -0.000015
      dxy     :     0.000079
  1 H s       :    -0.006139  s :    -0.006139
  2 C s       :    -0.033281  s :    -0.033281
      pz      :    -0.021577  p :    -0.116127
      px      :    -0.036150
      py      :    -0.058400
      dz2     :     0.000499  d :     0.010940
      dxz     :     0.000915
      dyz     :     0.001520
      dx2y2   :     0.000275
      dxy     :     0.007731
  3 F s       :     0.000134  s :     0.000134
      pz      :     0.000392  p :    -0.002695
      px      :    -0.001706
      py      :    -0.001382
      dz2     :     0.000010  d :     0.000045
      dxz     :     0.000007
      dyz     :     0.000065
      dx2y2   :    -0.000021
      dxy     :    -0.000016
  4 O s       :     0.028056  s :     0.028056
      pz      :     0.196657  p :     0.967600
      px      :     0.029563
      py      :     0.741380
      dz2     :     0.000029  d :    -0.000518
      dxz     :    -0.000091
      dyz     :    -0.000070
      dx2y2   :    -0.000215
      dxy     :    -0.000171
  5 H s       :    -0.002390  s :    -0.002390
  6 F s       :    -0.000225  s :    -0.000225
      pz      :     0.003919  p :     0.006448
      px      :     0.000414
      py      :     0.002115
      dz2     :     0.000004  d :     0.000162
      dxz     :     0.000050
      dyz     :    -0.000004
      dx2y2   :     0.000017
      dxy     :     0.000094
  7 H s       :     0.060881  s :     0.060881


                     *******************************
                     * LOEWDIN POPULATION ANALYSIS *
                     *******************************

-------------------------------------------
LOEWDIN ATOMIC CHARGES AND SPIN POPULATIONS
-------------------------------------------
   0 C :   -0.110660    0.066951
   1 H :    0.021381   -0.005039
   2 C :    0.091760   -0.056824
   3 F :   -0.226595   -0.005589
   4 O :   -0.068307    0.948699
   5 H :    0.099693   -0.002488
   6 F :    0.058370    0.010506
   7 H :    0.134360    0.043784

----------------------------------------------------
LOEWDIN REDUCED ORBITAL CHARGES AND SPIN POPULATIONS
----------------------------------------------------
CHARGE
  0 C s       :     2.907045  s :     2.907045
      pz      :     0.974715  p :     2.879308
      px      :     0.869417
      py      :     1.035176
      dz2     :     0.037874  d :     0.324308
      dxz     :     0.090055
      dyz     :     0.017650
      dx2y2   :     0.079452
      dxy     :     0.099277
  1 H s       :     0.978619  s :     0.978619
  2 C s       :     2.887878  s :     2.887878
      pz      :     0.818180  p :     2.753361
      px      :     0.867478
      py      :     1.067703
      dz2     :     0.060543  d :     0.267001
      dxz     :     0.069360
      dyz     :     0.040729
      dx2y2   :     0.059795
      dxy     :     0.036573
  3 F s       :     3.754830  s :     3.754830
      pz      :     1.642918  p :     5.439757
      px      :     1.880323
      py      :     1.916515
      dz2     :     0.011531  d :     0.032009
      dxz     :     0.008258
      dyz     :     0.008287
      dx2y2   :     0.002116
      dxy     :     0.001817
  4 O s       :     3.651273  s :     3.651273
      pz      :     1.698680  p :     4.373874
      px      :     1.483176
      py      :     1.192019
      dz2     :     0.005698  d :     0.043160
      dxz     :     0.008356
      dyz     :     0.000862
      dx2y2   :     0.017251
      dxy     :     0.010992
  5 H s       :     0.900307  s :     0.900307
  6 F s       :     3.564293  s :     3.564293
      pz      :     1.842390  p :     5.293523
      px      :     1.587645
      py      :     1.863487
      dz2     :     0.008658  d :     0.083815
      dxz     :     0.023918
      dyz     :     0.000414
      dx2y2   :     0.022756
      dxy     :     0.028069
  7 H s       :     0.865640  s :     0.865640

SPIN
  0 C s       :     0.016074  s :     0.016074
      pz      :     0.023538  p :     0.051154
      px      :     0.008986
      py      :     0.018630
      dz2     :    -0.000080  d :    -0.000278
      dxz     :     0.000037
      dyz     :    -0.000171
      dx2y2   :    -0.000115
      dxy     :     0.000051
  1 H s       :    -0.005039  s :    -0.005039
  2 C s       :    -0.013768  s :    -0.013768
      pz      :    -0.013477  p :    -0.069314
      px      :    -0.026988
      py      :    -0.028849
      dz2     :     0.001607  d :     0.026258
      dxz     :     0.002670
      dyz     :     0.003342
      dx2y2   :     0.001862
      dxy     :     0.016777
  3 F s       :    -0.000847  s :    -0.000847
      pz      :    -0.000256  p :    -0.004158
      px      :    -0.002130
      py      :    -0.001773
      dz2     :    -0.000091  d :    -0.000584
      dxz     :    -0.000175
      dyz     :    -0.000067
      dx2y2   :    -0.000075
      dxy     :    -0.000175
  4 O s       :     0.017867  s :     0.017867
      pz      :     0.189988  p :     0.932546
      px      :     0.021254
      py      :     0.721304
      dz2     :    -0.000340  d :    -0.001715
      dxz     :    -0.000307
      dyz     :    -0.000050
      dx2y2   :    -0.000157
      dxy     :    -0.000861
  5 H s       :    -0.002488  s :    -0.002488
  6 F s       :     0.000357  s :     0.000357
      pz      :     0.004471  p :     0.008008
      px      :     0.001211
      py      :     0.002326
      dz2     :     0.000064  d :     0.002141
      dxz     :     0.001081
      dyz     :    -0.000013
      dx2y2   :     0.000175
      dxy     :     0.000834
  7 H s       :     0.043784  s :     0.043784


                      *****************************
                      * MAYER POPULATION ANALYSIS *
                      *****************************

  NA   - Mulliken gross atomic population
  ZA   - Total nuclear charge
  QA   - Mulliken gross atomic charge
  VA   - Mayer's total valence
  BVA  - Mayer's bonded valence
  FA   - Mayer's free valence

  ATOM       NA         ZA         QA         VA         BVA        FA
  0 C      5.9679     6.0000     0.0321     3.8476     3.8408     0.0068
  1 H      0.9653     1.0000     0.0347     0.9693     0.9692     0.0000
  2 C      5.4542     6.0000     0.5458     3.5311     3.5226     0.0085
  3 F      9.4649     9.0000    -0.4649     0.7774     0.7774     0.0000
  4 O      8.3371     8.0000    -0.3371     1.8910     1.0016     0.8894
  5 H      0.8565     1.0000     0.1435     0.9371     0.9371     0.0000
  6 F      9.1484     9.0000    -0.1484     1.0652     1.0651     0.0001
  7 H      0.8056     1.0000     0.1944     0.9208     0.9171     0.0037

  Mayer bond orders larger than 0.100000
B(  0-C ,  1-H ) :   0.9485 B(  0-C ,  2-C ) :   0.9007 B(  0-C ,  5-H ) :   0.9408 
B(  0-C ,  6-F ) :   1.0259 B(  2-C ,  3-F ) :   0.7487 B(  2-C ,  4-O ) :   0.9595 
B(  2-C ,  7-H ) :   0.9147 

-------
TIMINGS
-------

Total SCF time: 0 days 0 hours 0 min 29 sec 

Total time                  ....      29.891 sec
Sum of individual times     ....      21.443 sec  ( 71.7%)

Fock matrix formation       ....      19.599 sec  ( 65.6%)
Diagonalization             ....       0.414 sec  (  1.4%)
Density matrix formation    ....       0.004 sec  (  0.0%)
Population analysis         ....       0.287 sec  (  1.0%)
Initial guess               ....       0.441 sec  (  1.5%)
Orbital Transformation      ....       0.016 sec  (  0.1%)
Orbital Orthonormalization  ....       0.000 sec  (  0.0%)
DIIS solution               ....       0.534 sec  (  1.8%)

Maximum memory used throughout the entire SCF-calculation: 230.5 MB

------------------------------------------------------------------------------
                                ORCA  MP2 
------------------------------------------------------------------------------

MP2 will be done in the AO integral direct mode
The Q1-step will be done using symmetric double matrices
Dimension of the basis                    ...   76
Memory devoted for MP2                    ...  256 MB   
Memory needed for all in one shot         ...   37 MB
Number of MOs that can be treated together...  149      
MP2 density construction                  ... relaxed
The MP2 gradient is requested => amplitudes will be stored on disk
Total number of MOs              ...   21
Number of MOs treated per batch  ...   21 
Number of batches necessary      ...    1 
OPERATORS   0/  0 PASS   0
OPERATORS   0/  1 PASS   0
Total number of MOs              ...   21
Number of MOs treated per batch  ...   20 
Number of batches necessary      ...    1 
OPERATORS   1/  0 PASS   0
OPERATORS   1/  1 PASS   0

Correlation energy components
 E2 and T2 for alpha/alpha pairs :     -0.101961528 Eh
 E2 and T2 for beta/beta   pairs :     -0.092604247 Eh
 E2 and T2 for alpha/beta  pairs :     -0.529037067 Eh

-----------------------------------------------
 MP2 CORRELATION ENERGY   :     -0.723602842 Eh
-----------------------------------------------


---------------------
MP2 DENSITY FORMATION
---------------------

Completing the external part of the density      ... done
Storing the unrelaxed density                    ... done

Calculating G(D)                                 ... done
Completing the Lagrangian                        ... done
Solving the Z-vector equations                   ... 

------------------------------------------------------------------------------
                           ORCA CP-SCF CALCULATION
------------------------------------------------------------------------------

Input orbitals are from        ... input.gbw
Input Perturbation             ... input.pin.tmp
Wavefunction output            ... input.pout.tmp
Perturbation mode              ... Real perturbation (singlet)
Solver                         ... POPLE
Max. number of iterations      ... 128
Convergence tolerance          ... 3.000e-05
Integral handling              ... Direct
Number of perturbations        ... 1
Number of operators            ... 2
Orbital ranges used for CP-SCF:
 Operator 0:  Orbitals   0... 20  to  21... 75
 Operator 1:  Orbitals   0... 19  to  20... 75
Variables per perturbation     ... 2275
Memory available               ... 1015.5 MB
Memory needed per perturbation ...   4.7 MB
Perturbations treated per batch... 1
Number of batches              ... 1
     CP-SCF ITERATION   0:   7.1676e-02 (   0.4 sec)
     CP-SCF ITERATION   1:   2.2063e-02 (   0.4 sec)
     CP-SCF ITERATION   2:   6.7765e-03 (   0.4 sec)
     CP-SCF ITERATION   3:   3.3415e-03 (   0.4 sec)
     CP-SCF ITERATION   4:   1.6672e-03 (   0.4 sec)
     CP-SCF ITERATION   5:   1.0464e-03 (   0.3 sec)
     CP-SCF ITERATION   6:   6.9569e-04 (   0.3 sec)
     CP-SCF ITERATION   7:   6.6462e-04 (   0.3 sec)
     CP-SCF ITERATION   8:   7.4553e-04 (   0.3 sec)
     CP-SCF ITERATION   9:   7.9657e-04 (   0.3 sec)
     CP-SCF ITERATION  10:   5.7595e-04 (   0.3 sec)
     CP-SCF ITERATION  11:   2.7152e-04 (   0.3 sec)
     CP-SCF ITERATION  12:   1.1261e-04 (   0.3 sec)
     CP-SCF ITERATION  13:   5.5112e-05 (   0.3 sec)
     CP-SCF ITERATION  14:   2.4505e-05 (   0.3 sec)
                    *** THE CP-SCF HAS CONVERGED ***
                                                 ... done
Finalizing the relaxed density                   ... done
Transforming P to the AO basis                   ... done
Storing the relaxed density                      ... done

------------------------------------
ENERGY WEIGHTED DENSITY FINALIZATION
------------------------------------

Gathering the parts of the W-matrix              ...                                                                                                           done
Forming the Z-density                            ... done
Transforming Z to the AO basis                   ... done
Calculating G(Z)                                 ... done
Finalizing the W-matrix                          ...                                                                                                           done
Transforming W to the AO basis and storing       ... done

                *********************************************
                * UNRELAXED MP2 DENSITY POPULATION ANALYSIS *
                *********************************************

------------------------------------------------------------------------------
                           ORCA POPULATION ANALYSIS
------------------------------------------------------------------------------
Input electron density              ... input.pmp2ur
Input spin density                  ... input.rmp2ur
BaseName (.gbw .S,...)              ... input

                    ********************************
                    * MULLIKEN POPULATION ANALYSIS *
                    ********************************

------------------------------------------
MULLIKEN ATOMIC CHARGES AND SPIN DENSITIES
------------------------------------------
   0 C :    0.021759    0.086319
   1 H :    0.037071   -0.005914
   2 C :    0.526581   -0.134259
   3 F :   -0.453874   -0.002635
   4 O :   -0.330798    0.991474
   5 H :    0.145466   -0.002262
   6 F :   -0.142594    0.006671
   7 H :    0.196388    0.060608
Sum of atomic charges       :   -0.0000000
Sum of atomic spin densities:    1.0000000

---------------------------------------------------
MULLIKEN REDUCED ORBITAL CHARGES AND SPIN DENSITIES
---------------------------------------------------
CHARGE
  0 C s       :     3.206902  s :     3.206902
      pz      :     0.922059  p :     2.614610
      px      :     0.702342
      py      :     0.990209
      dz2     :     0.023338  d :     0.156729
      dxz     :     0.036520
      dyz     :     0.012819
      dx2y2   :     0.044340
      dxy     :     0.039712
  1 H s       :     0.962929  s :     0.962929
  2 C s       :     3.008955  s :     3.008955
      pz      :     0.655929  p :     2.332140
      px      :     0.662821
      py      :     1.013390
      dz2     :     0.029310  d :     0.132324
      dxz     :     0.032629
      dyz     :     0.021278
      dx2y2   :     0.029009
      dxy     :     0.020098
  3 F s       :     3.983649  s :     3.983649
      pz      :     1.634697  p :     5.433912
      px      :     1.887259
      py      :     1.911956
      dz2     :     0.010535  d :     0.036314
      dxz     :     0.008971
      dyz     :     0.007768
      dx2y2   :     0.004364
      dxy     :     0.004677
  4 O s       :     3.948616  s :     3.948616
      pz      :     1.718340  p :     4.339357
      px      :     1.425464
      py      :     1.195553
      dz2     :     0.007288  d :     0.042825
      dxz     :     0.008957
      dyz     :     0.004209
      dx2y2   :     0.013304
      dxy     :     0.009067
  5 H s       :     0.854534  s :     0.854534
  6 F s       :     3.860202  s :     3.860202
      pz      :     1.876380  p :     5.237538
      px      :     1.462972
      py      :     1.898186
      dz2     :     0.006245  d :     0.044855
      dxz     :     0.012495
      dyz     :     0.003911
      dx2y2   :     0.009652
      dxy     :     0.012551
  7 H s       :     0.803612  s :     0.803612

SPIN
  0 C s       :     0.021536  s :     0.021536
      pz      :     0.033870  p :     0.064044
      px      :     0.007014
      py      :     0.023160
      dz2     :     0.000029  d :     0.000739
      dxz     :     0.000010
      dyz     :     0.000554
      dx2y2   :     0.000028
      dxy     :     0.000118
  1 H s       :    -0.005914  s :    -0.005914
  2 C s       :    -0.032753  s :    -0.032753
      pz      :    -0.020897  p :    -0.112002
      px      :    -0.035192
      py      :    -0.055913
      dz2     :     0.000456  d :     0.010495
      dxz     :     0.000836
      dyz     :     0.001440
      dx2y2   :     0.000176
      dxy     :     0.007587
  3 F s       :     0.000143  s :     0.000143
      pz      :     0.000340  p :    -0.002829
      px      :    -0.001746
      py      :    -0.001423
      dz2     :     0.000013  d :     0.000051
      dxz     :     0.000007
      dyz     :     0.000067
      dx2y2   :    -0.000022
      dxy     :    -0.000015
  4 O s       :     0.030680  s :     0.030680
      pz      :     0.194730  p :     0.957017
      px      :     0.028718
      py      :     0.733569
      dz2     :     0.000641  d :     0.003777
      dxz     :     0.000123
      dyz     :     0.001190
      dx2y2   :     0.000864
      dxy     :     0.000959
  5 H s       :    -0.002262  s :    -0.002262
  6 F s       :    -0.000213  s :    -0.000213
      pz      :     0.004068  p :     0.006712
      px      :     0.000455
      py      :     0.002190
      dz2     :     0.000008  d :     0.000172
      dxz     :     0.000050
      dyz     :    -0.000001
      dx2y2   :     0.000022
      dxy     :     0.000093
  7 H s       :     0.060608  s :     0.060608


                     *******************************
                     * LOEWDIN POPULATION ANALYSIS *
                     *******************************

-----------------------------------------
LOEWDIN ATOMIC CHARGES AND SPIN DENSITIES
-----------------------------------------
   0 C :   -0.121883    0.066865
   1 H :    0.024260   -0.004855
   2 C :    0.075746   -0.053101
   3 F :   -0.217097   -0.005611
   4 O :   -0.064809    0.944644
   5 H :    0.102438   -0.002372
   6 F :    0.064218    0.010746
   7 H :    0.137127    0.043683

--------------------------------------------------
LOEWDIN REDUCED ORBITAL CHARGES AND SPIN DENSITIES
--------------------------------------------------
CHARGE
  0 C s       :     2.906936  s :     2.906936
      pz      :     0.974222  p :     2.878437
      px      :     0.870861
      py      :     1.033354
      dz2     :     0.040762  d :     0.336510
      dxz     :     0.091793
      dyz     :     0.020740
      dx2y2   :     0.082093
      dxy     :     0.101122
  1 H s       :     0.975740  s :     0.975740
  2 C s       :     2.888945  s :     2.888945
      pz      :     0.821428  p :     2.754758
      px      :     0.869454
      py      :     1.063876
      dz2     :     0.063047  d :     0.280550
      dxz     :     0.071589
      dyz     :     0.043558
      dx2y2   :     0.062671
      dxy     :     0.039684
  3 F s       :     3.753452  s :     3.753452
      pz      :     1.632487  p :     5.411406
      px      :     1.871307
      py      :     1.907612
      dz2     :     0.015802  d :     0.052238
      dxz     :     0.012513
      dyz     :     0.012338
      dx2y2   :     0.005934
      dxy     :     0.005653
  4 O s       :     3.647244  s :     3.647244
      pz      :     1.689977  p :     4.354700
      px      :     1.474103
      py      :     1.190620
      dz2     :     0.009796  d :     0.062865
      dxz     :     0.012624
      dyz     :     0.004401
      dx2y2   :     0.021345
      dxy     :     0.014698
  5 H s       :     0.897562  s :     0.897562
  6 F s       :     3.563425  s :     3.563425
      pz      :     1.833451  p :     5.268703
      px      :     1.580269
      py      :     1.854983
      dz2     :     0.012665  d :     0.103655
      dxz     :     0.027785
      dyz     :     0.004202
      dx2y2   :     0.027230
      dxy     :     0.031774
  7 H s       :     0.862873  s :     0.862873

SPIN
  0 C s       :     0.016013  s :     0.016013
      pz      :     0.023255  p :     0.050767
      px      :     0.009062
      py      :     0.018450
      dz2     :     0.000005  d :     0.000086
      dxz     :     0.000110
      dyz     :    -0.000073
      dx2y2   :    -0.000063
      dxy     :     0.000106
  1 H s       :    -0.004855  s :    -0.004855
  2 C s       :    -0.013333  s :    -0.013333
      pz      :    -0.012815  p :    -0.065412
      px      :    -0.025819
      py      :    -0.026778
      dz2     :     0.001557  d :     0.025645
      dxz     :     0.002568
      dyz     :     0.003227
      dx2y2   :     0.001747
      dxy     :     0.016546
  3 F s       :    -0.000856  s :    -0.000856
      pz      :    -0.000288  p :    -0.004210
      px      :    -0.002156
      py      :    -0.001765
      dz2     :    -0.000078  d :    -0.000546
      dxz     :    -0.000174
      dyz     :    -0.000054
      dx2y2   :    -0.000073
      dxy     :    -0.000166
  4 O s       :     0.020035  s :     0.020035
      pz      :     0.188020  p :     0.922042
      px      :     0.020601
      py      :     0.713421
      dz2     :     0.000265  d :     0.002567
      dxz     :    -0.000097
      dyz     :     0.001211
      dx2y2   :     0.000932
      dxy     :     0.000256
  5 H s       :    -0.002372  s :    -0.002372
  6 F s       :     0.000377  s :     0.000377
      pz      :     0.004600  p :     0.008250
      px      :     0.001257
      py      :     0.002393
      dz2     :     0.000066  d :     0.002118
      dxz     :     0.001064
      dyz     :    -0.000009
      dx2y2   :     0.000178
      dxy     :     0.000820
  7 H s       :     0.043683  s :     0.043683


                      *****************************
                      * MAYER POPULATION ANALYSIS *
                      *****************************

  NA   - Mulliken gross atomic population
  ZA   - Total nuclear charge
  QA   - Mulliken gross atomic charge
  VA   - Mayer's total valence
  BVA  - Mayer's bonded valence
  FA   - Mayer's free valence

  ATOM       NA         ZA         QA         VA         BVA        FA
  0 C      5.9782     6.0000     0.0218     3.9152     3.6781     0.2371
  1 H      0.9629     1.0000     0.0371     0.9737     0.9162     0.0574
  2 C      5.4734     6.0000     0.5266     3.6045     3.3556     0.2490
  3 F      9.4539     9.0000    -0.4539     1.0517     0.7343     0.3174
  4 O      8.3308     8.0000    -0.3308     2.0899     0.9490     1.1409
  5 H      0.8545     1.0000     0.1455     0.9404     0.9023     0.0381
  6 F      9.1426     9.0000    -0.1426     1.2967     1.0283     0.2684
  7 H      0.8036     1.0000     0.1964     0.9233     0.8831     0.0401

  Mayer bond orders larger than 0.100000
B(  0-C ,  1-H ) :   0.8997 B(  0-C ,  2-C ) :   0.8542 B(  0-C ,  5-H ) :   0.9079 
B(  0-C ,  6-F ) :   0.9946 B(  2-C ,  3-F ) :   0.7101 B(  2-C ,  4-O ) :   0.9126 
B(  2-C ,  7-H ) :   0.8827 


                *******************************************
                * RELAXED MP2 DENSITY POPULATION ANALYSIS *
                *******************************************

------------------------------------------------------------------------------
                           ORCA POPULATION ANALYSIS
------------------------------------------------------------------------------
Input electron density              ... input.pmp2re
Input spin density                  ... input.rmp2re
BaseName (.gbw .S,...)              ... input

                    ********************************
                    * MULLIKEN POPULATION ANALYSIS *
                    ********************************

------------------------------------------
MULLIKEN ATOMIC CHARGES AND SPIN DENSITIES
------------------------------------------
   0 C :   -0.009712    0.090346
   1 H :    0.045975    0.001075
   2 C :    0.411333   -0.096141
   3 F :   -0.378870   -0.004254
   4 O :   -0.296134    0.929620
   5 H :    0.135397    0.000353
   6 F :   -0.092542    0.011843
   7 H :    0.184553    0.067157
Sum of atomic charges       :   -0.0000000
Sum of atomic spin densities:    1.0000000

---------------------------------------------------
MULLIKEN REDUCED ORBITAL CHARGES AND SPIN DENSITIES
---------------------------------------------------
CHARGE
  0 C s       :     3.196662  s :     3.196662
      pz      :     0.944333  p :     2.664202
      px      :     0.719511
      py      :     1.000358
      dz2     :     0.021417  d :     0.148848
      dxz     :     0.035977
      dyz     :     0.011138
      dx2y2   :     0.041239
      dxy     :     0.039077
  1 H s       :     0.954025  s :     0.954025
  2 C s       :     3.027236  s :     3.027236
      pz      :     0.707068  p :     2.434780
      px      :     0.713645
      py      :     1.014067
      dz2     :     0.027909  d :     0.126651
      dxz     :     0.032712
      dyz     :     0.019673
      dx2y2   :     0.026254
      dxy     :     0.020103
  3 F s       :     3.972125  s :     3.972125
      pz      :     1.605644  p :     5.371133
      px      :     1.869603
      py      :     1.895886
      dz2     :     0.010145  d :     0.035612
      dxz     :     0.008529
      dyz     :     0.007760
      dx2y2   :     0.004494
      dxy     :     0.004684
  4 O s       :     3.932758  s :     3.932758
      pz      :     1.692399  p :     4.321655
      px      :     1.404450
      py      :     1.224807
      dz2     :     0.006871  d :     0.041721
      dxz     :     0.009398
      dyz     :     0.004044
      dx2y2   :     0.011796
      dxy     :     0.009611
  5 H s       :     0.864603  s :     0.864603
  6 F s       :     3.846101  s :     3.846101
      pz      :     1.855494  p :     5.201301
      px      :     1.464325
      py      :     1.881482
      dz2     :     0.006146  d :     0.045140
      dxz     :     0.012939
      dyz     :     0.003941
      dx2y2   :     0.009138
      dxy     :     0.012976
  7 H s       :     0.815447  s :     0.815447

SPIN
  0 C s       :     0.020609  s :     0.020609
      pz      :     0.035728  p :     0.068528
      px      :     0.007585
      py      :     0.025215
      dz2     :     0.000080  d :     0.001210
      dxz     :     0.000135
      dyz     :     0.000763
      dx2y2   :     0.000034
      dxy     :     0.000198
  1 H s       :     0.001075  s :     0.001075
  2 C s       :    -0.025309  s :    -0.025309
      pz      :    -0.017632  p :    -0.082402
      px      :    -0.025030
      py      :    -0.039740
      dz2     :     0.000517  d :     0.011570
      dxz     :     0.001026
      dyz     :     0.001757
      dx2y2   :     0.000310
      dxy     :     0.007960
  3 F s       :     0.000224  s :     0.000224
      pz      :    -0.000918  p :    -0.004559
      px      :    -0.001741
      py      :    -0.001900
      dz2     :     0.000044  d :     0.000081
      dxz     :    -0.000003
      dyz     :     0.000083
      dx2y2   :    -0.000024
      dxy     :    -0.000019
  4 O s       :     0.025658  s :     0.025658
      pz      :     0.194578  p :     0.900270
      px      :     0.021755
      py      :     0.683937
      dz2     :     0.000638  d :     0.003692
      dxz     :    -0.000001
      dyz     :     0.001306
      dx2y2   :     0.001053
      dxy     :     0.000695
  5 H s       :     0.000353  s :     0.000353
  6 F s       :    -0.000230  s :    -0.000230
      pz      :     0.006980  p :     0.011883
      px      :     0.001090
      py      :     0.003812
      dz2     :     0.000007  d :     0.000190
      dxz     :     0.000054
      dyz     :    -0.000000
      dx2y2   :     0.000022
      dxy     :     0.000107
  7 H s       :     0.067157  s :     0.067157


                     *******************************
                     * LOEWDIN POPULATION ANALYSIS *
                     *******************************

-----------------------------------------
LOEWDIN ATOMIC CHARGES AND SPIN DENSITIES
-----------------------------------------
   0 C :   -0.148867    0.075691
   1 H :    0.040332    0.000084
   2 C :    0.028066   -0.025338
   3 F :   -0.184188   -0.006397
   4 O :   -0.069286    0.890383
   5 H :    0.104781   -0.001079
   6 F :    0.088203    0.015977
   7 H :    0.140958    0.050679

--------------------------------------------------
LOEWDIN REDUCED ORBITAL CHARGES AND SPIN DENSITIES
--------------------------------------------------
CHARGE
  0 C s       :     2.910939  s :     2.910939
      pz      :     0.990497  p :     2.910122
      px      :     0.878792
      py      :     1.040833
      dz2     :     0.038960  d :     0.327806
      dxz     :     0.090369
      dyz     :     0.019190
      dx2y2   :     0.079233
      dxy     :     0.100054
  1 H s       :     0.959668  s :     0.959668
  2 C s       :     2.896850  s :     2.896850
      pz      :     0.845689  p :     2.799280
      px      :     0.891754
      py      :     1.061838
      dz2     :     0.061486  d :     0.275804
      dxz     :     0.071800
      dyz     :     0.042221
      dx2y2   :     0.060143
      dxy     :     0.040154
  3 F s       :     3.755957  s :     3.755957
      pz      :     1.615816  p :     5.375003
      px      :     1.861281
      py      :     1.897906
      dz2     :     0.016068  d :     0.053229
      dxz     :     0.012854
      dyz     :     0.012492
      dx2y2   :     0.006038
      dxy     :     0.005777
  4 O s       :     3.649214  s :     3.649214
      pz      :     1.670025  p :     4.357140
      px      :     1.464635
      py      :     1.222479
      dz2     :     0.009626  d :     0.062932
      dxz     :     0.013259
      dyz     :     0.004249
      dx2y2   :     0.020772
      dxy     :     0.015026
  5 H s       :     0.895219  s :     0.895219
  6 F s       :     3.561945  s :     3.561945
      pz      :     1.819027  p :     5.244585
      px      :     1.581405
      py      :     1.844152
      dz2     :     0.012588  d :     0.105267
      dxz     :     0.028961
      dyz     :     0.004228
      dx2y2   :     0.026873
      dxy     :     0.032616
  7 H s       :     0.859042  s :     0.859042

SPIN
  0 C s       :     0.017263  s :     0.017263
      pz      :     0.025862  p :     0.057211
      px      :     0.010093
      py      :     0.021256
      dz2     :     0.000108  d :     0.001218
      dxz     :     0.000494
      dyz     :     0.000252
      dx2y2   :    -0.000017
      dxy     :     0.000380
  1 H s       :     0.000084  s :     0.000084
  2 C s       :    -0.009400  s :    -0.009400
      pz      :    -0.009662  p :    -0.043037
      px      :    -0.017505
      py      :    -0.015869
      dz2     :     0.001518  d :     0.027098
      dxz     :     0.002897
      dyz     :     0.003871
      dx2y2   :     0.001435
      dxy     :     0.017378
  3 F s       :    -0.000895  s :    -0.000895
      pz      :    -0.001236  p :    -0.005233
      px      :    -0.001975
      py      :    -0.002022
      dz2     :     0.000050  d :    -0.000270
      dxz     :    -0.000148
      dyz     :     0.000044
      dx2y2   :    -0.000049
      dxy     :    -0.000167
  4 O s       :     0.016227  s :     0.016227
      pz      :     0.187416  p :     0.871138
      px      :     0.016001
      py      :     0.667721
      dz2     :     0.000380  d :     0.003018
      dxz     :    -0.000128
      dyz     :     0.001327
      dx2y2   :     0.001178
      dxy     :     0.000261
  5 H s       :    -0.001079  s :    -0.001079
  6 F s       :     0.000429  s :     0.000429
      pz      :     0.007376  p :     0.013132
      px      :     0.001811
      py      :     0.003945
      dz2     :     0.000074  d :     0.002416
      dxz     :     0.001205
      dyz     :    -0.000008
      dx2y2   :     0.000192
      dxy     :     0.000953
  7 H s       :     0.050679  s :     0.050679


                      *****************************
                      * MAYER POPULATION ANALYSIS *
                      *****************************

  NA   - Mulliken gross atomic population
  ZA   - Total nuclear charge
  QA   - Mulliken gross atomic charge
  VA   - Mayer's total valence
  BVA  - Mayer's bonded valence
  FA   - Mayer's free valence

  ATOM       NA         ZA         QA         VA         BVA        FA
  0 C      6.0097     6.0000    -0.0097     3.9580     3.7299     0.2281
  1 H      0.9540     1.0000     0.0460     0.9710     0.9149     0.0561
  2 C      5.5887     6.0000     0.4113     3.8013     3.5722     0.2291
  3 F      9.3789     9.0000    -0.3789     1.1638     0.8530     0.3108
  4 O      8.2961     8.0000    -0.2961     2.1761     1.1565     1.0195
  5 H      0.8646     1.0000     0.1354     0.9421     0.9046     0.0375
  6 F      9.0925     9.0000    -0.0925     1.4064     1.1429     0.2635
  7 H      0.8154     1.0000     0.1846     0.9242     0.8860     0.0383

  Mayer bond orders larger than 0.100000
B(  0-C ,  1-H ) :   0.8737 B(  0-C ,  2-C ) :   0.8285 B(  0-C ,  5-H ) :   0.8964 
B(  0-C ,  6-F ) :   1.0713 B(  2-C ,  3-F ) :   0.8086 B(  2-C ,  4-O ) :   1.0605 
B(  2-C ,  7-H ) :   0.8614 


----------------------------------
MP2 DERIVATIVE INTEGRAL GENERATION
----------------------------------


Input Wavefunction Amplitudes       ... input.mp2tbb.tmp
Input Correlated Electron Density   ... input.pmp2re
Input Energy Weighted Density       ... input.wmp2.tmp
Input SCF Electron Density          ... input.scfp

One-Electron Terms    ...
                        ... One-Electron Terms done
Prescreening matrices              ... done

Batch handling in the gradient evaluation:
Memory available                      ...  256.0 MB
Memory per occupied orbital in Q2     ...    1.8 MB
Memory per occupied orbital in Q3     ...    0.0 MB
Total memory requirement per |i>      ...    1.8 MB
Max. Number of orbitals possible      ...    140
Number of orbitals treated per batch  ...     41
Number of batches to be done          ...      1
Batch   0: i=    0 ...    40

---------------------------------------
MP2 TOTAL ENERGY:     -351.755520048 Eh
---------------------------------------

The final MP2 gradient
  0:   0.46946440  -0.00782103  -0.10629778
  1:   0.00295377   0.01688400   0.07181141
  2:   0.01234972   0.00546629   0.00688258
  3:  -0.02373049   0.00781066   0.01651346
  4:   0.01507889  -0.01421195  -0.01752222
  5:   0.03189298  -0.00035297  -0.00029314
  6:  -0.52129699   0.00094638   0.03194696
  7:   0.01328770  -0.00872137  -0.00304127

-----------------------------------
NORM OF THE MP2 GRADIENT:  0.716325
-----------------------------------

Maximum memory used throughout the entire MP2-calculation: 152.6 MB

-------------------------   --------------------
FINAL SINGLE POINT ENERGY      -351.755520048064
-------------------------   --------------------

------------------------------------------------------------------------------
                         ORCA GEOMETRY RELAXATION STEP
------------------------------------------------------------------------------

Reading the OPT-File                    .... done
Getting information on internals        .... done
Copying old internal coords+grads       .... done
Making the new internal coordinates     .... (new redundants).... done
Validating the new internal coordinates .... (new redundants).... done
Calculating the B-matrix                .... done
Calculating the G,G- and P matrices     .... done
Transforming gradient to internals      .... done
Projecting the internal gradient        .... done
Number of atoms                         ....   8
Number of internal coordinates          ....  28
Current Energy                          ....  -351.755520048 Eh
Current gradient norm                   ....     0.716325464 Eh/bohr
Maximum allowed component of the step   ....  0.300
Current trust radius                    ....  0.300
Evaluating the initial hessian          ....  (Almloef) done
Projecting the Hessian                  .... done
Forming the augmented Hessian           .... done
Diagonalizing the augmented Hessian     .... done
Last element of RFO vector              ....  0.924758732
Lowest eigenvalues of augmented Hessian:
 -0.185453508  0.010423405  0.104410050  0.127677608  0.130125068
Length of the computed step             ....  0.411516981
Warning: the length of the step is outside the trust region - taking restricted step instead
The input lambda is                     ....    -0.185454
   iter:   1  x=   -0.324759  g=    0.569582 f(x)=     0.079346
   iter:   2  x=   -0.437489  g=    0.245033 f(x)=     0.027622
   iter:   3  x=   -0.473876  g=    0.155780 f(x)=     0.005668
   iter:   4  x=   -0.476279  g=    0.138137 f(x)=     0.000332
   iter:   5  x=   -0.476288  g=    0.137092 f(x)=     0.000001
   iter:   6  x=   -0.476288  g=    0.137088 f(x)=     0.000000
   iter:   7  x=   -0.476288  g=    0.137088 f(x)=    -0.000000
The output lambda is                    ....    -0.476288 (7 iterations)
The final length of the internal step   ....  0.300000000
Converting the step to cartesian space:
 Initial RMS(Int)=    0.0566946710
Transforming coordinates:
 Iter   0:  RMS(Cart)=    0.0519711916 RMS(Int)=    0.0471215663
 Iter   1:  RMS(Cart)=    0.0111245354 RMS(Int)=    0.0113654833
 Iter   2:  RMS(Cart)=    0.0001121420 RMS(Int)=    0.0000850201
 Iter   3:  RMS(Cart)=    0.0000105565 RMS(Int)=    0.0000073796
 Iter   4:  RMS(Cart)=    0.0000011025 RMS(Int)=    0.0000007342
 Iter   5:  RMS(Cart)=    0.0000001148 RMS(Int)=    0.0000000747
 Iter   6:  RMS(Cart)=    0.0000000120 RMS(Int)=    0.0000000077
done
Storing new coordinates                 .... done

                                .--------------------.
          ----------------------|Geometry convergence|-------------------------
          Item                value                   Tolerance       Converged
          ---------------------------------------------------------------------
          RMS gradient        0.1004403097            0.0000080000      NO
          MAX gradient        0.5221158785            0.0000300000      NO
          RMS step            0.0566946710            0.0001000000      NO
          MAX step            0.2600791542            0.0002000000      NO
          ........................................................
          Max(Bonds)      0.1376      Max(Angles)    1.75
          Max(Dihed)        1.78      Max(Improp)    0.00
          ---------------------------------------------------------------------

The optimization has not yet converged - more geometry cycles are needed


    ---------------------------------------------------------------------------
                         Redundant Internal Coordinates
                            (Angstroem and degrees)

        Definition                    Value    dE/dq     Step     New-Value
    ----------------------------------------------------------------------------
     1. B(H   1,C   0)                1.3644  0.071006 -0.0618    1.3026   
[...]
	<< Calculating on displaced geometry   2 (of  48) >>
	<< Calculating on displaced geometry   3 (of  48) >>
	<< Calculating on displaced geometry   4 (of  48) >>
	<< Calculating on displaced geometry   5 (of  48) >>
	<< Calculating on displaced geometry   6 (of  48) >>
	<< Calculating on displaced geometry   7 (of  48) >>
	<< Calculating on displaced geometry   8 (of  48) >>
	<< Calculating on displaced geometry   9 (of  48) >>
	<< Calculating on displaced geometry  10 (of  48) >>
	<< Calculating on displaced geometry  11 (of  48) >>
	<< Calculating on displaced geometry  12 (of  48) >>
	<< Calculating on displaced geometry  13 (of  48) >>
	<< Calculating on displaced geometry  14 (of  48) >>
	<< Calculating on displaced geometry  15 (of  48) >>
	<< Calculating on displaced geometry  16 (of  48) >>
	<< Calculating on displaced geometry  17 (of  48) >>
	<< Calculating on displaced geometry  18 (of  48) >>
	<< Calculating on displaced geometry  19 (of  48) >>
	<< Calculating on displaced geometry  20 (of  48) >>
	<< Calculating on displaced geometry  21 (of  48) >>
	<< Calculating on displaced geometry  22 (of  48) >>
	<< Calculating on displaced geometry  23 (of  48) >>
	<< Calculating on displaced geometry  24 (of  48) >>
	<< Calculating on displaced geometry  25 (of  48) >>
	<< Calculating on displaced geometry  26 (of  48) >>
	<< Calculating on displaced geometry  27 (of  48) >>
	<< Calculating on displaced geometry  28 (of  48) >>
	<< Calculating on displaced geometry  29 (of  48) >>
	<< Calculating on displaced geometry  30 (of  48) >>
	<< Calculating on displaced geometry  31 (of  48) >>
	<< Calculating on displaced geometry  32 (of  48) >>
	<< Calculating on displaced geometry  33 (of  48) >>
	<< Calculating on displaced geometry  34 (of  48) >>
	<< Calculating on displaced geometry  35 (of  48) >>
	<< Calculating on displaced geometry  36 (of  48) >>
	<< Calculating on displaced geometry  37 (of  48) >>
	<< Calculating on displaced geometry  38 (of  48) >>
	<< Calculating on displaced geometry  39 (of  48) >>
	<< Calculating on displaced geometry  40 (of  48) >>
	<< Calculating on displaced geometry  41 (of  48) >>
	<< Calculating on displaced geometry  42 (of  48) >>
	<< Calculating on displaced geometry  43 (of  48) >>
	<< Calculating on displaced geometry  44 (of  48) >>
	<< Calculating on displaced geometry  45 (of  48) >>
	<< Calculating on displaced geometry  46 (of  48) >>
	<< Calculating on displaced geometry  47 (of  48) >>
	<< Calculating on displaced geometry  48 (of  48) >>

-----------------------
VIBRATIONAL FREQUENCIES
-----------------------

Scaling factor for frequencies =  1.000000000 (already applied!)

   0:         0.00 cm**-1
   1:         0.00 cm**-1
   2:         0.00 cm**-1
   3:         0.00 cm**-1
   4:         0.00 cm**-1
   5:         0.00 cm**-1
   6:       126.41 cm**-1
   7:       247.86 cm**-1
   8:       414.64 cm**-1
   9:       482.82 cm**-1
  10:       580.70 cm**-1
  11:       902.52 cm**-1
  12:      1053.03 cm**-1
  13:      1121.76 cm**-1
  14:      1139.30 cm**-1
  15:      1175.80 cm**-1
  16:      1226.56 cm**-1
  17:      1302.07 cm**-1
  18:      1397.37 cm**-1
  19:      1455.66 cm**-1
  20:      1569.85 cm**-1
  21:      3060.12 cm**-1
  22:      3149.37 cm**-1
  23:      3225.98 cm**-1


------------
NORMAL MODES
------------

These modes are the cartesian displacements weighted by the diagonal matrix
M(i,i)=1/sqrt(m[i]) where m[i] is the mass of the displaced atom
Thus, these vectors are normalized but *not* orthogonal

                  0          1          2          3          4          5    
      0       0.000000   0.000000   0.000000   0.000000   0.000000   0.000000
      1       0.000000   0.000000   0.000000   0.000000   0.000000   0.000000
      2       0.000000   0.000000   0.000000   0.000000   0.000000   0.000000
      3       0.000000   0.000000   0.000000   0.000000   0.000000   0.000000
      4       0.000000   0.000000   0.000000   0.000000   0.000000   0.000000
      5       0.000000   0.000000   0.000000   0.000000   0.000000   0.000000
      6       0.000000   0.000000   0.000000   0.000000   0.000000   0.000000
      7       0.000000   0.000000   0.000000   0.000000   0.000000   0.000000
      8       0.000000   0.000000   0.000000   0.000000   0.000000   0.000000
      9       0.000000   0.000000   0.000000   0.000000   0.000000   0.000000
     10       0.000000   0.000000   0.000000   0.000000   0.000000   0.000000
     11       0.000000   0.000000   0.000000   0.000000   0.000000   0.000000
     12       0.000000   0.000000   0.000000   0.000000   0.000000   0.000000
     13       0.000000   0.000000   0.000000   0.000000   0.000000   0.000000
     14       0.000000   0.000000   0.000000   0.000000   0.000000   0.000000
     15       0.000000   0.000000   0.000000   0.000000   0.000000   0.000000
     16       0.000000   0.000000   0.000000   0.000000   0.000000   0.000000
     17       0.000000   0.000000   0.000000   0.000000   0.000000   0.000000
     18       0.000000   0.000000   0.000000   0.000000   0.000000   0.000000
     19       0.000000   0.000000   0.000000   0.000000   0.000000   0.000000
     20       0.000000   0.000000   0.000000   0.000000   0.000000   0.000000
     21       0.000000   0.000000   0.000000   0.000000   0.000000   0.000000
     22       0.000000   0.000000   0.000000   0.000000   0.000000   0.000000
     23       0.000000   0.000000   0.000000   0.000000   0.000000   0.000000
                  6          7          8          9         10         11    
      0       0.030171  -0.039502  -0.206942   0.068537   0.059434   0.004001
      1      -0.201446  -0.227888   0.050148   0.082274   0.026152   0.075792
      2      -0.141764  -0.019112  -0.160875  -0.189151  -0.075174  -0.270692
      3      -0.266219   0.004509  -0.320251  -0.033708   0.058989  -0.102837
      4      -0.509247  -0.563315  -0.112642  -0.360945   0.307051   0.647681
      5      -0.164519   0.103320  -0.159764  -0.094733  -0.162953  -0.498367
      6       0.046880  -0.078562   0.135237  -0.046593  -0.263864   0.026503
      7      -0.076077  -0.093780   0.144277   0.220773  -0.203620  -0.187245
      8      -0.038210   0.158864  -0.088205  -0.009734  -0.174576  -0.045940
      9      -0.137185   0.141573   0.193255  -0.006480   0.327003  -0.056792
     10      -0.041839  -0.141275  -0.103357  -0.098984  -0.015828   0.041180
     11      -0.131704   0.261344  -0.018085   0.130319  -0.125619   0.174683
     12       0.062535  -0.051783   0.162008  -0.098585  -0.320948   0.068223
     13       0.145067   0.228768  -0.160360  -0.024120   0.200398   0.004877
     14       0.075506  -0.113839   0.389642  -0.020808   0.263069   0.002544
     15       0.337523   0.212165  -0.229956   0.075291   0.092463  -0.085647
     16      -0.225417  -0.251340   0.121686   0.199180  -0.074497  -0.017230
     17      -0.449784  -0.252268  -0.430856  -0.686687   0.290773   0.249780
     18       0.020595  -0.037076  -0.271134   0.084480   0.088918  -0.005625
     19       0.142158   0.203803   0.110761  -0.080401  -0.047601   0.001197
     20       0.213230  -0.261870  -0.110540   0.065863   0.067404   0.024058
     21       0.215416   0.042573   0.301030  -0.208409  -0.460389  -0.081430
     22      -0.151689  -0.161954   0.079952   0.314503  -0.103175  -0.178503
     23       0.023835   0.300479  -0.201603  -0.215952  -0.230122   0.235389
                 12         13         14         15         16         17    
      0       0.106907  -0.216087   0.276044   0.092232   0.045346   0.000950
      1       0.138583  -0.100010  -0.166627   0.062896   0.095465  -0.002686
      2       0.037147   0.141744  -0.017470   0.090635   0.019855  -0.039330
      3      -0.056783  -0.240328   0.533361  -0.167584  -0.043366   0.618230
      4      -0.323182  -0.246743   0.186562  -0.271354  -0.102639  -0.122913
      5       0.116854   0.173252  -0.017900   0.094058   0.047627   0.228093
      6      -0.085710  -0.183250  -0.080237   0.250623  -0.155697  -0.036734
      7      -0.168193   0.003764   0.146455  -0.124889   0.014142  -0.053100
      8       0.067163  -0.371755  -0.122060  -0.157785  -0.060012  -0.002540
      9      -0.002585  -0.037601  -0.009557  -0.030256   0.007464   0.001409
     10       0.015516   0.069531  -0.000505   0.068591  -0.001189   0.019656
     11      -0.022272   0.153035   0.049521   0.097638   0.007142   0.010648
     12       0.132789   0.189454   0.046834  -0.170034   0.035454   0.003981
     13       0.027742   0.002632   0.001723   0.009258  -0.017181  -0.003406
     14      -0.002315   0.033432   0.000368   0.005257  -0.001287  -0.003956
     15       0.164000   0.004448   0.207067   0.364007   0.396991  -0.566772
     16       0.228381  -0.146680  -0.279285   0.042334   0.029502   0.198784
     17      -0.431978   0.020620   0.504737  -0.206791  -0.124961  -0.169592
     18      -0.093139   0.157438  -0.184446  -0.076258  -0.020608  -0.000523
     19      -0.022641   0.003850   0.005515  -0.017368  -0.029167   0.022801
     20      -0.012864  -0.012409   0.024166  -0.022854  -0.000318   0.026904
     21      -0.663276  -0.271365  -0.160514   0.424513   0.646290   0.295048
     22       0.141590   0.115469   0.211322  -0.144632  -0.388065  -0.157289
     23      -0.228840  -0.634182  -0.218886  -0.580043   0.447659  -0.204546
                 18         19         20         21         22         23    
      0       0.006107   0.118797  -0.066771   0.001036   0.035244  -0.004617
      1       0.009071  -0.079184  -0.041751  -0.003321   0.041404   0.070136
      2       0.036295   0.092662   0.037629  -0.001234  -0.037630   0.068083
      3       0.231690  -0.486698   0.401599  -0.007781  -0.229993   0.248282
      4      -0.146520   0.367061   0.592059   0.004951   0.201513  -0.201992
      5       0.169043  -0.282188   0.005442   0.007991   0.605796  -0.657203
      6       0.085672  -0.037034   0.010069   0.025591   0.000228   0.000349
      7      -0.003330   0.008218  -0.004791   0.074451   0.001150   0.003809
      8      -0.143787  -0.023084   0.008090   0.012053   0.000913   0.001624
      9      -0.011438   0.001191   0.000009  -0.000313  -0.000017   0.000082
     10      -0.017378   0.000829   0.001009   0.000218  -0.000097  -0.000249
     11       0.007310   0.005245  -0.001785   0.000581   0.000139  -0.000540
     12      -0.022701  -0.004812  -0.001696   0.003772   0.000349   0.000102
     13       0.009613   0.000971   0.000992   0.001316  -0.000148  -0.000023
     14       0.014964  -0.001480   0.000075  -0.000241   0.000030  -0.000294
     15      -0.171408  -0.516703   0.414757   0.014265  -0.204882  -0.188997
     16       0.099997   0.241653  -0.035585   0.035829  -0.679753  -0.630708
     17      -0.134769  -0.422327  -0.550329   0.011539  -0.174991  -0.145835
     18      -0.009146  -0.000503  -0.003590  -0.000105   0.000609  -0.000011
     19       0.006627   0.013672  -0.003210  -0.000238  -0.000184  -0.000520
     20       0.003700  -0.013216   0.003740   0.000072   0.000241  -0.000505
     21      -0.405623   0.092534  -0.046314  -0.375759  -0.004489  -0.011396
     22       0.028164  -0.051811   0.023852  -0.908866  -0.021177  -0.033545
     23       0.801554   0.049174  -0.037905  -0.156921  -0.000920  -0.003213


-----------
IR SPECTRUM
-----------

 Mode   freq       eps      Int      T**2         TX        TY        TZ
       cm**-1   L/(mol*cm) km/mol    a.u.
----------------------------------------------------------------------------
  6:    126.41   0.001682    8.50  0.004153  ( 0.017310 -0.053770 -0.031022)
  7:    247.86   0.001396    7.05  0.001757  (-0.008871 -0.036244  0.019110)
  8:    414.64   0.000815    4.12  0.000613  (-0.000533  0.015427 -0.019359)
  9:    482.82   0.004786   24.18  0.003093  (-0.009466  0.041138 -0.036210)
 10:    580.70   0.001935    9.78  0.001040  (-0.024159 -0.008511 -0.019590)
 11:    902.52   0.008242   41.65  0.002850  ( 0.008822 -0.009627 -0.051761)
 12:   1053.03   0.001060    5.36  0.000314  ( 0.006380 -0.002737  0.016306)
 13:   1121.76   0.008662   43.78  0.002410  (-0.024016 -0.012382 -0.040984)
 14:   1139.30   0.008812   44.53  0.002414  ( 0.047951 -0.001844 -0.010540)
 15:   1175.80   0.021630  109.31  0.005741  ( 0.055705 -0.022386 -0.046224)
 16:   1226.56   0.000957    4.84  0.000244  ( 0.010931  0.006053  0.009351)
 17:   1302.07   0.000405    2.04  0.000097  (-0.001769 -0.009186 -0.003077)
 18:   1397.37   0.007633   38.57  0.001705  ( 0.026050 -0.005306 -0.031587)
 19:   1455.66   0.003825   19.33  0.000820  ( 0.027856 -0.004433  0.004950)
 20:   1569.85   0.000252    1.27  0.000050  (-0.003557  0.003271 -0.005174)
 21:   3060.12   0.001574    7.95  0.000160  (-0.005761  0.009801  0.005587)
 22:   3149.37   0.002731   13.80  0.000271  ( 0.009683  0.008970 -0.009816)
 23:   3225.98   0.003311   16.73  0.000320  (-0.001019  0.012143  0.013106)

* The epsilon (eps) is given for a Dirac delta lineshape.
** The dipole moment derivative (T) already includes vibrational overlap.

The first frequency considered to be a vibration is 6
The total number of vibrations considered is 18


--------------------------
THERMOCHEMISTRY AT 298.15K
--------------------------

Temperature         ... 298.15 K
Pressure            ... 1.00 atm
Total Mass          ... 81.04 AMU

Throughout the following assumptions are being made:
  (1) The electronic state is orbitally nondegenerate
      but the spin degeneracy is treated
  (2) There are no thermally accessible electronically excited states
  (3) Hindered rotations indicated by low frequency modes are not
      treated as such but are treated as vibrations and this may
      cause some error
  (4) All equations used are the standard statistical mechanics
      equations for an ideal gas
  (5) All vibrations are strictly harmonic

freq.     126.41  E(vib)   ...       0.43 
freq.     247.86  E(vib)   ...       0.31 
freq.     414.64  E(vib)   ...       0.19 
freq.     482.82  E(vib)   ...       0.15 
freq.     580.70  E(vib)   ...       0.11 
freq.     902.52  E(vib)   ...       0.03 
freq.    1053.03  E(vib)   ...       0.02 
freq.    1121.76  E(vib)   ...       0.01 
freq.    1139.30  E(vib)   ...       0.01 
freq.    1175.80  E(vib)   ...       0.01 
freq.    1226.56  E(vib)   ...       0.01 
freq.    1302.07  E(vib)   ...       0.01 
freq.    1397.37  E(vib)   ...       0.00 
freq.    1455.66  E(vib)   ...       0.00 
freq.    1569.85  E(vib)   ...       0.00 
freq.    3060.12  E(vib)   ...       0.00 
freq.    3149.37  E(vib)   ...       0.00 
freq.    3225.98  E(vib)   ...       0.00 

------------
INNER ENERGY
------------

The inner energy is: U= E(el) + E(ZPE) + E(vib) + E(rot) + E(trans)
    E(el)   - is the total energy from the electronic structure calculation
              = E(kin-el) + E(nuc-el) + E(el-el) + E(nuc-nuc)
    E(ZPE)  - the the zero temperature vibrational energy from the frequency calculation
    E(vib)  - the the finite temperature correction to E(ZPE) due to population
              of excited vibrational states
    E(rot)  - is the rotational thermal energy
    E(trans)- is the translational thermal energy

Summary of contributions to the inner energy U:
Electronic energy                ...   -351.89617276 Eh
Zero point energy                ...      0.05383727 Eh      33.78 kcal/mol
Thermal vibrational correction   ...      0.00206773 Eh       1.30 kcal/mol
Thermal rotational correction    ...      0.00141627 Eh       0.89 kcal/mol
Thermal translational correction ...      0.00141627 Eh       0.89 kcal/mol
-----------------------------------------------------------------------
Total thermal energy                   -351.83743522 Eh


Summary of corrections to the electronic energy:
(perhaps to be used in another calculation)
Total thermal correction                  0.00490027 Eh       3.07 kcal/mol
Non-thermal (ZPE) correction              0.05383727 Eh      33.78 kcal/mol
-----------------------------------------------------------------------
Total correction                          0.05873754 Eh      36.86 kcal/mol


--------
ENTHALPY
--------

The enthalpy is H = U + kB*T
                kB is Boltzmann's constant
Total free energy                 ...   -351.83743522 Eh 
Thermal Enthalpy correction       ...      0.00094421 Eh       0.59 kcal/mol
-----------------------------------------------------------------------
Total Enthalpy                    ...   -351.83649101 Eh


Note: Only C1 symmetry has been detected, increase convergence thresholds 
      if your molecule has a higher symmetry. Symmetry factor of 1.0 is   
      used for the rotational entropy correction. 
 

Note: Rotational entropy computed according to Herzberg 
Infrared and Raman Spectra, Chapter V,1, Van Nostrand Reinhold, 1945 
Point Group:  C1, Symmetry Number:   1  
Rotational constants in cm-1:     0.301460     0.130309     0.098311 

Vibrational entropy computed according to the QRRHO of S. Grimme
Chem.Eur.J. 2012 18 9955


-------
ENTROPY
-------

The entropy contributions are T*S = T*(S(el)+S(vib)+S(rot)+S(trans))
     S(el)   - electronic entropy
     S(vib)  - vibrational entropy
     S(rot)  - rotational entropy
     S(trans)- translational entropy
The entropies will be listed as multiplied by the temperature to get
units of energy

Electronic entropy                ...      0.00065446 Eh      0.41 kcal/mol
Vibrational entropy               ...      0.00343061 Eh      2.15 kcal/mol
Rotational entropy                ...      0.01213402 Eh      7.61 kcal/mol
Translational entropy             ...      0.01857352 Eh     11.66 kcal/mol
-----------------------------------------------------------------------
Final entropy term                ...      0.03479260 Eh     21.83 kcal/mol

In case the symmetry of your molecule has not been determined correctly
or in case you have a reason to use a different symmetry number we print 
out the resulting rotational entropy values for sn=1,12 :
 --------------------------------------------------------
|  sn= 1 | S(rot)=       0.01213402 Eh      7.61 kcal/mol|
|  sn= 2 | S(rot)=       0.01147956 Eh      7.20 kcal/mol|
|  sn= 3 | S(rot)=       0.01109673 Eh      6.96 kcal/mol|
|  sn= 4 | S(rot)=       0.01082511 Eh      6.79 kcal/mol|
|  sn= 5 | S(rot)=       0.01061442 Eh      6.66 kcal/mol|
|  sn= 6 | S(rot)=       0.01044228 Eh      6.55 kcal/mol|
|  sn= 7 | S(rot)=       0.01029673 Eh      6.46 kcal/mol|
|  sn= 8 | S(rot)=       0.01017065 Eh      6.38 kcal/mol|
|  sn= 9 | S(rot)=       0.01005944 Eh      6.31 kcal/mol|
|  sn=10 | S(rot)=       0.00995996 Eh      6.25 kcal/mol|
|  sn=11 | S(rot)=       0.00986997 Eh      6.19 kcal/mol|
|  sn=12 | S(rot)=       0.00978782 Eh      6.14 kcal/mol|
 --------------------------------------------------------


-------------------
GIBBS FREE ENERGY
-------------------

The Gibbs free energy is G = H - T*S

Total enthalpy                    ...   -351.83649101 Eh 
Total entropy correction          ...     -0.03479260 Eh    -21.83 kcal/mol
-----------------------------------------------------------------------
Final Gibbs free energy         ...   -351.87128362 Eh

For completeness - the Gibbs free energy minus the electronic energy
G-E(el)                           ...      0.02488914 Eh     15.62 kcal/mol



Timings for individual modules:

Sum of individual times         ...     1829.185 sec (=  30.486 min)
GTO integral calculation        ...        6.299 sec (=   0.105 min)   0.3 %
SCF iterations                  ...      170.171 sec (=   2.836 min)   9.3 %
MP2 module                      ...      256.989 sec (=   4.283 min)  14.0 %
Geometry relaxation             ...        1.133 sec (=   0.019 min)   0.1 %
Numerical frequency calculation ...     1394.592 sec (=  23.243 min)  76.2 %
                             ****ORCA TERMINATED NORMALLY****
TOTAL RUN TIME: 0 days 0 hours 30 minutes 18 seconds 613 msec
