
                                 *****************
                                 * O   R   C   A *
                                 *****************

                                            #,                                       
                                            ###                                      
                                            ####                                     
                                            #####                                    
                                            ######                                   
                                           ########,                                 
                                     ,,################,,,,,                         
                               ,,#################################,,                 
                          ,,##########################################,,             
                       ,#########################################, ''#####,          
                    ,#############################################,,   '####,        
                  ,##################################################,,,,####,       
                ,###########''''           ''''###############################       
              ,#####''   ,,,,##########,,,,          '''####'''          '####       
            ,##' ,,,,###########################,,,                        '##       
           ' ,,###''''                  '''############,,,                           
         ,,##''                                '''############,,,,        ,,,,,,###''
      ,#''                                            '''#######################'''  
     '                                                          ''''####''''         
             ,#######,   #######,   ,#######,      ##                                
            ,#'     '#,  ##    ##  ,#'     '#,    #''#        ######   ,####,        
            ##       ##  ##   ,#'  ##            #'  '#       #        #'  '#        
            ##       ##  #######   ##           ,######,      #####,   #    #        
            '#,     ,#'  ##    ##  '#,     ,#' ,#      #,         ##   #,  ,#        
             '#######'   ##     ##  '#######'  #'      '#     #####' # '####'        



                  #######################################################
                  #                        -***-                        #
                  #          Department of theory and spectroscopy      #
                  #    Directorship and core code : Frank Neese         #
                  #        Max Planck Institute fuer Kohlenforschung    #
                  #                Kaiser Wilhelm Platz 1               #
                  #                 D-45470 Muelheim/Ruhr               #
                  #                      Germany                        #
                  #                                                     #
                  #                  All rights reserved                #
                  #                        -***-                        #
                  #######################################################


                         Program Version 5.0.1 -  RELEASE  -


 With contributions from (in alphabetic order):
   Daniel Aravena         : Magnetic Suceptibility
   Michael Atanasov       : Ab Initio Ligand Field Theory (pilot matlab implementation)
   Alexander A. Auer      : GIAO ZORA, VPT2 properties, NMR spectrum
   Ute Becker             : Parallelization
   Giovanni Bistoni       : ED, misc. LED, open-shell LED, HFLD
   Martin Brehm           : Molecular dynamics
   Dmytro Bykov           : SCF Hessian
   Vijay G. Chilkuri      : MRCI spin determinant printing, contributions to CSF-ICE
   Dipayan Datta          : RHF DLPNO-CCSD density
   Achintya Kumar Dutta   : EOM-CC, STEOM-CC
   Dmitry Ganyushin       : Spin-Orbit,Spin-Spin,Magnetic field MRCI
   Miquel Garcia          : C-PCM and meta-GGA Hessian, CC/C-PCM, Gaussian charge scheme
   Yang Guo               : DLPNO-NEVPT2, F12-NEVPT2, CIM, IAO-localization
   Andreas Hansen         : Spin unrestricted coupled pair/coupled cluster methods
   Benjamin Helmich-Paris : MC-RPA, TRAH-SCF, COSX integrals
   Lee Huntington         : MR-EOM, pCC
   Robert Izsak           : Overlap fitted RIJCOSX, COSX-SCS-MP3, EOM
   Marcus Kettner         : VPT2
   Christian Kollmar      : KDIIS, OOCD, Brueckner-CCSD(T), CCSD density, CASPT2, CASPT2-K
   Simone Kossmann        : Meta GGA functionals, TD-DFT gradient, OOMP2, MP2 Hessian
   Martin Krupicka        : Initial AUTO-CI
   Lucas Lang             : DCDCAS
   Marvin Lechner         : AUTO-CI (C++ implementation), FIC-MRCC
   Dagmar Lenk            : GEPOL surface, SMD
   Dimitrios Liakos       : Extrapolation schemes; Compound Job, initial MDCI parallelization
   Dimitrios Manganas     : Further ROCIS development; embedding schemes
   Dimitrios Pantazis     : SARC Basis sets
   Anastasios Papadopoulos: AUTO-CI, single reference methods and gradients
   Taras Petrenko         : DFT Hessian,TD-DFT gradient, ASA, ECA, R-Raman, ABS, FL, XAS/XES, NRVS
   Peter Pinski           : DLPNO-MP2, DLPNO-MP2 Gradient
   Christoph Reimann      : Effective Core Potentials
   Marius Retegan         : Local ZFS, SOC
   Christoph Riplinger    : Optimizer, TS searches, QM/MM, DLPNO-CCSD(T), (RO)-DLPNO pert. Triples
   Tobias Risthaus        : Range-separated hybrids, TD-DFT gradient, RPA, STAB
   Michael Roemelt        : Original ROCIS implementation
   Masaaki Saitow         : Open-shell DLPNO-CCSD energy and density
   Barbara Sandhoefer     : DKH picture change effects
   Avijit Sen             : IP-ROCIS
   Kantharuban Sivalingam : CASSCF convergence, NEVPT2, FIC-MRCI
   Bernardo de Souza      : ESD, SOC TD-DFT
   Georgi Stoychev        : AutoAux, RI-MP2 NMR, DLPNO-MP2 response
   Willem Van den Heuvel  : Paramagnetic NMR
   Boris Wezisla          : Elementary symmetry handling
   Frank Wennmohs         : Technical directorship


 We gratefully acknowledge several colleagues who have allowed us to
 interface, adapt or use parts of their codes:
   Stefan Grimme, W. Hujo, H. Kruse, P. Pracht,  : VdW corrections, initial TS optimization,
                  C. Bannwarth, S. Ehlert          DFT functionals, gCP, sTDA/sTD-DF
   Ed Valeev, F. Pavosevic, A. Kumar             : LibInt (2-el integral package), F12 methods
   Garnet Chan, S. Sharma, J. Yang, R. Olivares  : DMRG
   Ulf Ekstrom                                   : XCFun DFT Library
   Mihaly Kallay                                 : mrcc  (arbitrary order and MRCC methods)
   Jiri Pittner, Ondrej Demel                    : Mk-CCSD
   Frank Weinhold                                : gennbo (NPA and NBO analysis)
   Christopher J. Cramer and Donald G. Truhlar   : smd solvation model
   Lars Goerigk                                  : TD-DFT with DH, B97 family of functionals
   V. Asgeirsson, H. Jonsson                     : NEB implementation
   FAccTs GmbH                                   : IRC, NEB, NEB-TS, DLPNO-Multilevel, CI-OPT
                                                   MM, QMMM, 2- and 3-layer-ONIOM, Crystal-QMMM,
                                                   LR-CPCM, SF, NACMEs, symmetry and pop. for TD-DFT,
                                                   nearIR, NL-DFT gradient (VV10), updates on ESD,
                                                   ML-optimized integration grids
   S Lehtola, MJT Oliveira, MAL Marques          : LibXC Library
   Liviu Ungur et al                             : ANISO software


 Your calculation uses the libint2 library for the computation of 2-el integrals
 For citations please refer to: http://libint.valeyev.net

 Your ORCA version has been built with support for libXC version: 5.1.0
 For citations please refer to: https://tddft.org/programs/libxc/

 This ORCA versions uses:
   CBLAS   interface :  Fast vector & matrix operations
   LAPACKE interface :  Fast linear algebra routines
   SCALAPACK package :  Parallel linear algebra routines
   Shared memory     :  Shared parallel matrices
   BLAS/LAPACK       :  OpenBLAS 0.3.15  USE64BITINT DYNAMIC_ARCH NO_AFFINITY Zen SINGLE_THREADED
        Core in use  :  Zen
   Copyright (c) 2011-2014, The OpenBLAS Project




***************************************
The coordinates will be read from file: input.xyz
***************************************


================================================================================

----- Orbital basis set information -----
Your calculation utilizes the basis: 6-31G(d)
   H-He, Li-Ne : W. J. Hehre, R. Ditchfield and J.A. Pople, J. Chem. Phys. 56, 2257 (1972).
                 Note: He and Ne are unpublished basis sets taken from the Gaussian program.
                 Note: Li and B from J. D. Dill and J. A. Pople, J. Chem. Phys. 62, 2921 (1975).
   Na - Ar     : M. M. Francl, W. J. Pietro, W. J. Hehre, J. S. Binkley, M. S. Gordon, 
                 D. J. DeFrees and J. A. Pople, J. Chem. Phys. 77, 3654 (1982).
   K - Zn      : V. A. Rassolov, J. A. Pople, M. A. Ratner, and T. L. Windus, J. Chem. Phys. 109, 1223 (1998).

================================================================================
                                        WARNINGS
                       Please study these warnings very carefully!
================================================================================


WARNING: Geometry Optimization
  ===> : Switching off AutoStart
         For restart on a previous wavefunction, please use MOREAD

WARNING: Post HF methods need fully converged wavefunctions
  ===> : Setting SCFConvForced true
         You can overwrite this default with %scf ConvForced false 


INFO   : the flag for use of the SHARK integral package has been found!

================================================================================
                                       INPUT FILE
================================================================================
NAME = input.orc
|  1> ! MP2 UHF 6-31G(d) opt NumFreq NoFrozenCore VERYTIGHTSCF VERYTIGHTOPT
|  2> * XYZfile 0 2 input.xyz
|  3> 
|  4>                          ****END OF INPUT****
================================================================================

                       *****************************
                       * Geometry Optimization Run *
                       *****************************

Geometry optimization settings:
Update method            Update   .... BFGS
Choice of coordinates    CoordSys .... Z-matrix Internals
Initial Hessian          InHess   .... Almoef's Model

Convergence Tolerances:
Energy Change            TolE     ....  2.0000e-07 Eh
Max. Gradient            TolMAXG  ....  3.0000e-05 Eh/bohr
RMS Gradient             TolRMSG  ....  8.0000e-06 Eh/bohr
Max. Displacement        TolMAXD  ....  2.0000e-04 bohr
RMS Displacement         TolRMSD  ....  1.0000e-04 bohr
Strict Convergence                ....  False
------------------------------------------------------------------------------
                        ORCA OPTIMIZATION COORDINATE SETUP
------------------------------------------------------------------------------

The optimization will be done in new redundant internal coordinates
Making redundant internal coordinates   ...  (new redundants) done
Evaluating the initial hessian          ...  (Almloef) done
Evaluating the coordinates              ...  done
Calculating the B-matrix                .... done
Calculating the G-matrix                .... done
Diagonalizing the G-matrix              .... done
The first mode is                       ....   10
The number of degrees of freedom        ....   18

    -----------------------------------------------------------------
                    Redundant Internal Coordinates


    -----------------------------------------------------------------
         Definition                    Initial Value    Approx d2E/dq
    -----------------------------------------------------------------
      1. B(C   1,C   0)                  1.5676         0.325432   
      2. B(F   2,C   1)                  1.4121         0.479481   
      3. B(O   3,C   1)                  1.2555         0.917293   
      4. B(H   4,C   0)                  1.0868         0.364330   
      5. B(H   5,C   0)                  1.0843         0.367662   
      6. B(H   6,C   0)                  1.0847         0.367204   
      7. B(H   7,C   1)                  1.1283         0.312862   
      8. A(C   1,C   0,H   5)          108.8394         0.318160   
      9. A(H   4,C   0,H   6)          110.4232         0.292270   
     10. A(C   1,C   0,H   4)          106.4551         0.317688   
     11. A(H   4,C   0,H   5)          110.2318         0.292328   
     12. A(H   5,C   0,H   6)          111.2094         0.292690   
     13. A(C   1,C   0,H   6)          109.5527         0.318095   
     14. A(O   3,C   1,H   7)          112.6609         0.366043   
     15. A(F   2,C   1,O   3)          114.8600         0.436963   
     16. A(F   2,C   1,H   7)          102.1153         0.326874   
     17. A(C   0,C   1,H   7)          102.7213         0.309939   
     18. A(C   0,C   1,O   3)          116.9436         0.412190   
     19. A(C   0,C   1,F   2)          105.8383         0.366497   
     20. D(F   2,C   1,C   0,H   5)    173.5399         0.008649   
     21. D(F   2,C   1,C   0,H   6)     51.7487         0.008649   
     22. D(O   3,C   1,C   0,H   4)     61.7167         0.008649   
     23. D(O   3,C   1,C   0,H   5)    -57.0846         0.008649   
     24. D(O   3,C   1,C   0,H   6)   -178.8758         0.008649   
     25. D(H   7,C   1,C   0,H   4)   -174.3789         0.008649   
     26. D(H   7,C   1,C   0,H   5)     66.8198         0.008649   
     27. D(H   7,C   1,C   0,H   6)    -54.9713         0.008649   
     28. D(F   2,C   1,C   0,H   4)    -67.6588         0.008649   
    -----------------------------------------------------------------

Number of atoms                         .... 8
Number of degrees of freedom            .... 28

         *************************************************************
         *                GEOMETRY OPTIMIZATION CYCLE   1            *
         *************************************************************
---------------------------------
CARTESIAN COORDINATES (ANGSTROEM)
---------------------------------
  C      1.077170    0.041938    0.005973
  C      0.449736    0.521915    1.359923
  F      1.055201    1.765096    1.645977
  O     -0.803103    0.513978    1.440776
  H      0.722092    0.728233   -0.758291
  H      0.730854   -0.964085   -0.203270
  H      2.159095    0.078270    0.074182
  H      0.938415   -0.158886    2.115380

----------------------------
CARTESIAN COORDINATES (A.U.)
----------------------------
  NO LB      ZA    FRAG     MASS         X           Y           Z
   0 C     6.0000    0    12.011    2.035556    0.079252    0.011288
   1 C     6.0000    0    12.011    0.849878    0.986277    2.569881
   2 F     9.0000    0    18.998    1.994041    3.335548    3.110446
   3 O     8.0000    0    15.999   -1.517646    0.971279    2.722672
   4 H     1.0000    0     1.008    1.364557    1.376160   -1.432962
   5 H     1.0000    0     1.008    1.381114   -1.821856   -0.384124
   6 H     1.0000    0     1.008    4.080099    0.147909    0.140184
   7 H     1.0000    0     1.008    1.773347   -0.300251    3.997488

--------------------------------
INTERNAL COORDINATES (ANGSTROEM)
--------------------------------
 C      0   0   0     0.000000000000     0.00000000     0.00000000
 C      1   0   0     1.567555295722     0.00000000     0.00000000
 F      2   1   0     1.412060126214   105.83834083     0.00000000
 O      2   1   3     1.255471017579   116.94357936   129.37548432
 H      1   2   3     1.086820934129   106.45507469   292.34120205
 H      1   2   3     1.084343002964   108.83935041   173.53989960
 H      1   2   3     1.084682024270   109.55274046    51.74873441
 H      2   1   3     1.128278311103   102.72125127   253.27994622

---------------------------
INTERNAL COORDINATES (A.U.)
---------------------------
 C      0   0   0     0.000000000000     0.00000000     0.00000000
 C      1   0   0     2.962250208692     0.00000000     0.00000000
 F      2   1   0     2.668406923175   105.83834083     0.00000000
 O      2   1   3     2.372496392300   116.94357936   129.37548432
 H      1   2   3     2.053793922117   106.45507469   292.34120205
 H      1   2   3     2.049111310835   108.83935041   173.53989960
 H      1   2   3     2.049751968257   109.55274046    51.74873441
 H      2   1   3     2.132137010828   102.72125127   253.27994622

---------------------
BASIS SET INFORMATION
---------------------
There are 4 groups of distinct atoms

 Group   1 Type C   : 10s4p1d contracted to 3s2p1d pattern {631/31/1}
 Group   2 Type F   : 10s4p1d contracted to 3s2p1d pattern {631/31/1}
 Group   3 Type O   : 10s4p1d contracted to 3s2p1d pattern {631/31/1}
 Group   4 Type H   : 4s contracted to 2s pattern {31}

Atom   0C    basis set group =>   1
Atom   1C    basis set group =>   1
Atom   2F    basis set group =>   2
Atom   3O    basis set group =>   3
Atom   4H    basis set group =>   4
Atom   5H    basis set group =>   4
Atom   6H    basis set group =>   4
Atom   7H    basis set group =>   4
------------------------------------------------------------------------------
                           ORCA GTO INTEGRAL CALCULATION
------------------------------------------------------------------------------
------------------------------------------------------------------------------
                   ___                                                        
                  /   \      - P O W E R E D   B Y -                         
                 /     \                                                     
                 |  |  |   _    _      __       _____    __    __             
                 |  |  |  | |  | |    /  \     |  _  \  |  |  /  |          
                  \  \/   | |  | |   /    \    | | | |  |  | /  /          
                 / \  \   | |__| |  /  /\  \   | |_| |  |  |/  /          
                |  |  |   |  __  | /  /__\  \  |    /   |      \           
                |  |  |   | |  | | |   __   |  |    \   |  |\   \          
                \     /   | |  | | |  |  |  |  | |\  \  |  | \   \       
                 \___/    |_|  |_| |__|  |__|  |_| \__\ |__|  \__/        
                                                                              
                      - O R C A' S   B I G   F R I E N D -                    
                                      &                                       
                       - I N T E G R A L  F E E D E R -                       
                                                                              
 v1 FN, 2020, v2 2021                                                         
------------------------------------------------------------------------------


Reading SHARK input file input.SHARKINP.tmp ... ok
----------------------
SHARK INTEGRAL PACKAGE
----------------------

Number of atoms                             ...      8
Number of basis functions                   ...     64
Number of shells                            ...     32
Maximum angular momentum                    ...      2
Integral batch strategy                     ... SHARK/LIBINT Hybrid
RI-J (if used) integral strategy            ... SPLIT-RIJ (Revised 2003 algorithm where possible)
Printlevel                                  ...      1
Contraction scheme used                     ... SEGMENTED contraction
Coulomb Range Separation                    ... NOT USED
Exchange Range Separation                   ... NOT USED
Finite Nucleus Model                        ... NOT USED
Auxiliary Coulomb fitting basis             ... NOT available
Auxiliary J/K fitting basis                 ... NOT available
Auxiliary Correlation fitting basis         ... NOT available
Auxiliary 'external' fitting basis          ... NOT available
Integral threshold                          ...     1.000000e-12
Primitive cut-off                           ...     1.000000e-14
Primitive pair pre-selection threshold      ...     1.000000e-14

Calculating pre-screening integrals         ... done (  0.0 sec) Dimension = 32
Organizing shell pair data                  ... done (  0.1 sec)
Shell pair information
Total number of shell pairs                 ...       528
Shell pairs after pre-screening             ...       525
Total number of primitive shell pairs       ...      3022
Primitive shell pairs kept                  ...      2351
          la=0 lb=0:    207 shell pairs
          la=1 lb=0:    160 shell pairs
          la=1 lb=1:     36 shell pairs
          la=2 lb=0:     80 shell pairs
          la=2 lb=1:     32 shell pairs
          la=2 lb=2:     10 shell pairs

Calculating one electron integrals          ... done (  0.0 sec)
Calculating Nuclear repulsion               ... done (  0.0 sec) ENN=    125.156930083969 Eh

SHARK setup successfully completed in   0.3 seconds

Maximum memory used throughout the entire GTOINT-calculation: 7.5 MB
-------------------------------------------------------------------------------
                                 ORCA SCF
-------------------------------------------------------------------------------

------------
SCF SETTINGS
------------
Hamiltonian:
 Ab initio Hamiltonian  Method          .... Hartree-Fock(GTOs)


General Settings:
 Integral files         IntName         .... input
 Hartree-Fock type      HFTyp           .... UHF
 Total Charge           Charge          ....    0
 Multiplicity           Mult            ....    2
 Number of Electrons    NEL             ....   33
 Basis Dimension        Dim             ....   64
 Nuclear Repulsion      ENuc            ....    125.1569300840 Eh

Convergence Acceleration:
 DIIS                   CNVDIIS         .... on
   Start iteration      DIISMaxIt       ....    12
   Startup error        DIISStart       ....  0.200000
   # of expansion vecs  DIISMaxEq       ....     5
   Bias factor          DIISBfac        ....   1.050
   Max. coefficient     DIISMaxC        ....  10.000
 Trust-Rad. Augm. Hess. CNVTRAH         .... auto
   Auto Start mean grad. ratio tolernc. ....  1.125000
   Auto Start start iteration           ....    20
   Auto Start num. interpolation iter.  ....    10
   Max. Number of Micro iterations      ....    16
   Max. Number of Macro iterations      .... Maxiter - #DIIS iter
   Number of Davidson start vectors     ....     2
   Converg. threshold I  (grad. norm)   ....   2.000e-06
   Converg. threshold II (energy diff.) ....   1.000e-09
   Grad. Scal. Fac. for Micro threshold ....   0.100
   Minimum threshold for Micro iter.    ....   0.010
   NR start threshold (gradient norm)   ....   0.001
   Initial trust radius                 ....   0.400
   Minimum AH scaling param. (alpha)    ....   1.000
   Maximum AH scaling param. (alpha)    .... 1000.000
   Orbital update algorithm             .... Taylor
   White noise on init. David. guess    .... on
   Maximum white noise                  ....   0.010
   Quad. conv. algorithm                .... NR
 SOSCF                  CNVSOSCF        .... off
 Level Shifting         CNVShift        .... on
   Level shift para.    LevelShift      ....    0.2500
   Turn off err/grad.   ShiftErr        ....    0.0010
 Zerner damping         CNVZerner       .... off
 Static damping         CNVDamp         .... on
   Fraction old density DampFac         ....    0.7000
   Max. Damping (<1)    DampMax         ....    0.9800
   Min. Damping (>=0)   DampMin         ....    0.0000
   Turn off err/grad.   DampErr         ....    0.1000
 Fernandez-Rico         CNVRico         .... off

SCF Procedure:
 Maximum # iterations   MaxIter         ....   125
 SCF integral mode      SCFMode         .... Direct
   Integral package                     .... SHARK and LIBINT hybrid scheme
 Reset frequency        DirectResetFreq ....    20
 Integral Threshold     Thresh          ....  1.000e-12 Eh
 Primitive CutOff       TCut            ....  1.000e-14 Eh

Convergence Tolerance:
 Convergence Check Mode ConvCheckMode   .... Total+1el-Energy
 Convergence forced     ConvForced      .... 1
 Energy Change          TolE            ....  1.000e-09 Eh
 1-El. energy change                    ....  1.000e-06 Eh
 DIIS Error             TolErr          ....  1.000e-08


Diagonalization of the overlap matrix:
Smallest eigenvalue                        ... 6.232e-03
Time for diagonalization                   ...    0.001 sec
Threshold for overlap eigenvalues          ... 1.000e-08
Number of eigenvalues below threshold      ... 0
Time for construction of square roots      ...    0.022 sec
Total time needed                          ...    0.024 sec

Time for model grid setup =    0.121 sec

------------------------------
INITIAL GUESS: MODEL POTENTIAL
------------------------------
Loading Hartree-Fock densities                     ... done
Calculating cut-offs                               ... done
Initializing the effective Hamiltonian             ... done
Setting up the integral package (SHARK)            ... done
Starting the Coulomb interaction                   ... done (   0.1 sec)
Reading the grid                                   ... done
Mapping shells                                     ... done
Starting the XC term evaluation                    ... done (   0.0 sec)
Transforming the Hamiltonian                       ... done (   0.0 sec)
Diagonalizing the Hamiltonian                      ... done (   0.0 sec)
Back transforming the eigenvectors                 ... done (   0.0 sec)
Now organizing SCF variables                       ... done
                      ------------------
                      INITIAL GUESS DONE (   0.2 sec)
                      ------------------
--------------
SCF ITERATIONS
--------------
ITER       Energy         Delta-E        Max-DP      RMS-DP      [F,P]     Damp
               ***  Starting incremental Fock matrix formation  ***
  0   -252.1228191656   0.000000000000 0.03259480  0.00138057  0.1882609 0.7000
  1   -252.1746971336  -0.051877968018 0.02776280  0.00107079  0.1102565 0.7000
                               ***Turning on DIIS***
  2   -252.2081121404  -0.033415006833 0.07054936  0.00247964  0.0671330 0.0000
  3   -252.0792857100   0.128826430377 0.02374034  0.00097444  0.0565768 0.0000
  4   -252.3024439196  -0.223158209528 0.01932024  0.00071287  0.0252586 0.0000
  5   -252.2888137298   0.013630189750 0.01510081  0.00069656  0.0183985 0.0000
  6   -252.3173758709  -0.028562141092 0.01038249  0.00049438  0.0125939 0.0000
  7   -252.3200495895  -0.002673718627 0.00496465  0.00023966  0.0054826 0.0000
  8   -252.3133192054   0.006730384132 0.00204171  0.00011924  0.0022850 0.0000
  9   -252.3122956134   0.001023592010 0.00114277  0.00006994  0.0015149 0.0000
 10   -252.3113494207   0.000946192701 0.00098265  0.00005174  0.0014440 0.0000
 11   -252.3106879407   0.000661480025 0.00123302  0.00004853  0.0013731 0.0000
 12   -252.3107827075  -0.000094766850 0.00193322  0.00006060  0.0012756 0.0000
 13   -252.3104160207   0.000366686851 0.00318684  0.00008590  0.0011056 0.0000
 14   -252.3105880160  -0.000171995332 0.00390520  0.00010061  0.0008109 0.0000
 15   -252.3106541888  -0.000066172793 0.00471053  0.00011242  0.0006490 0.0000
 16   -252.3106262202   0.000027968574 0.00237535  0.00005813  0.0004046 0.0000
 17   -252.3105838854   0.000042334804 0.00233251  0.00006142  0.0002762 0.0000
 18   -252.3106677211  -0.000083835708 0.00141159  0.00003931  0.0001223 0.0000
 19   -252.3105571033   0.000110617795 0.00013437  0.00000383  0.0000390 0.0000
               *** Restarting incremental Fock matrix formation ***
                                   *** Resetting DIIS ***
 20   -252.3105345030   0.000022600290 0.00006476  0.00000269  0.0000209 0.0000
 21   -252.3105282345   0.000006268575 0.00004855  0.00000204  0.0000163 0.0000
 22   -252.3105174199   0.000010814556 0.00007053  0.00000298  0.0000122 0.0000
 23   -252.3105391851  -0.000021765240 0.00002689  0.00000116  0.0000056 0.0000
 24   -252.3105354368   0.000003748396 0.00000347  0.00000023  0.0000024 0.0000
 25   -252.3105350697   0.000000367031 0.00000282  0.00000013  0.0000018 0.0000
 26   -252.3105346222   0.000000447542 0.00000261  0.00000012  0.0000017 0.0000
 27   -252.3105349825  -0.000000360342 0.00000324  0.00000015  0.0000015 0.0000
 28   -252.3105349654   0.000000017119 0.00000359  0.00000012  0.0000013 0.0000
 29   -252.3105347766   0.000000188841 0.00000221  0.00000005  0.0000011 0.0000
 30   -252.3105345293   0.000000247299 0.00000229  0.00000007  0.0000009 0.0000
 31   -252.3105346041  -0.000000074847 0.00000337  0.00000010  0.0000008 0.0000
 32   -252.3105345572   0.000000046921 0.00000433  0.00000012  0.0000005 0.0000
 33   -252.3105347025  -0.000000145290 0.00000217  0.00000005  0.0000003 0.0000
 34   -252.3105346641   0.000000038404 0.00000054  0.00000002  0.0000001 0.0000
 35   -252.3105346327   0.000000031328 0.00000037  0.00000002  0.0000001 0.0000
 36   -252.3105346672  -0.000000034447 0.00000038  0.00000002  0.0000001 0.0000
 37   -252.3105346125   0.000000054662 0.00000025  0.00000001  0.0000001 0.0000
 38   -252.3105346056   0.000000006920 0.00000006  0.00000000  0.0000000 0.0000
                 **** Energy Check signals convergence ****

               *****************************************************
               *                     SUCCESS                       *
               *           SCF CONVERGED AFTER  39 CYCLES          *
               *****************************************************


----------------
TOTAL SCF ENERGY
----------------

Total Energy       :         -252.31053461 Eh           -6865.71869 eV

Components:
Nuclear Repulsion  :          125.15693008 Eh            3405.69321 eV
Electronic Energy  :         -377.46746469 Eh          -10271.41190 eV
One Electron Energy:         -595.69314404 Eh          -16209.63453 eV
Two Electron Energy:          218.22567935 Eh            5938.22263 eV

Virial components:
Potential Energy   :         -504.60379549 Eh          -13730.96734 eV
Kinetic Energy     :          252.29326088 Eh            6865.24865 eV
Virial Ratio       :            2.00006847


---------------
SCF CONVERGENCE
---------------

  Last Energy change         ...   -9.7759e-10  Tolerance :   1.0000e-09
  Last MAX-Density change    ...    3.9952e-08  Tolerance :   1.0000e-08
  Last RMS-Density change    ...    1.8338e-09  Tolerance :   1.0000e-09
  Last DIIS Error            ...    3.0370e-08  Tolerance :   1.0000e-08

             **** THE GBW FILE WAS UPDATED (input.gbw) ****
             **** DENSITY input.scfp WAS UPDATED ****
             **** ENERGY FILE WAS UPDATED (input.en.tmp) ****
----------------------
UHF SPIN CONTAMINATION
----------------------

Expectation value of <S**2>     :     0.764412
Ideal value S*(S+1) for S=0.5   :     0.750000
Deviation                       :     0.014412

             **** THE GBW FILE WAS UPDATED (input.gbw) ****
             **** DENSITY input.scfp WAS UPDATED ****
----------------
ORBITAL ENERGIES
----------------
                 SPIN UP ORBITALS
  NO   OCC          E(Eh)            E(eV) 
   0   1.0000     -26.263163      -714.6570 
   1   1.0000     -20.662268      -562.2489 
   2   1.0000     -11.373805      -309.4970 
   3   1.0000     -11.248481      -306.0867 
   4   1.0000      -1.583385       -43.0861 
   5   1.0000      -1.479551       -40.2606 
   6   1.0000      -1.029056       -28.0020 
   7   1.0000      -0.862296       -23.4643 
   8   1.0000      -0.764661       -20.8075 
   9   1.0000      -0.721147       -19.6234 
  10   1.0000      -0.709888       -19.3170 
  11   1.0000      -0.640426       -17.4269 
  12   1.0000      -0.598771       -16.2934 
  13   1.0000      -0.586234       -15.9522 
  14   1.0000      -0.564694       -15.3661 
  15   1.0000      -0.534905       -14.5555 
  16   1.0000      -0.473370       -12.8810 
  17   0.0000       0.237840         6.4720 
  18   0.0000       0.280531         7.6336 
  19   0.0000       0.298119         8.1122 
  20   0.0000       0.306887         8.3508 
  21   0.0000       0.374411        10.1882 
  22   0.0000       0.380069        10.3422 
  23   0.0000       0.441769        12.0211 
  24   0.0000       0.728452        19.8222 
  25   0.0000       0.755931        20.5699 
  26   0.0000       0.777161        21.1476 
  27   0.0000       0.801031        21.7971 
  28   0.0000       0.836094        22.7513 
  29   0.0000       0.874748        23.8031 
  30   0.0000       1.044943        28.4343 
  31   0.0000       1.072754        29.1911 
  32   0.0000       1.122090        30.5336 
  33   0.0000       1.158275        31.5183 
  34   0.0000       1.166107        31.7314 
  35   0.0000       1.214511        33.0485 
  36   0.0000       1.227011        33.3887 
  37   0.0000       1.262854        34.3640 
  38   0.0000       1.484691        40.4005 
  39   0.0000       1.562310        42.5126 
  40   0.0000       1.578390        42.9502 
  41   0.0000       1.598571        43.4993 
  42   0.0000       1.704098        46.3709 
  43   0.0000       1.740505        47.3615 
  44   0.0000       1.872487        50.9530 
  45   0.0000       1.940189        52.7952 
  46   0.0000       1.970572        53.6220 
  47   0.0000       2.082961        56.6802 
  48   0.0000       2.093263        56.9606 
  49   0.0000       2.138428        58.1896 
  50   0.0000       2.201053        59.8937 
  51   0.0000       2.268818        61.7377 
  52   0.0000       2.303884        62.6919 
  53   0.0000       2.376531        64.6687 
  54   0.0000       2.476184        67.3804 
  55   0.0000       2.533366        68.9364 
  56   0.0000       2.552796        69.4651 
  57   0.0000       2.617884        71.2362 
  58   0.0000       2.708792        73.7100 
  59   0.0000       2.870849        78.1198 
  60   0.0000       2.984682        81.2173 
  61   0.0000       3.095627        84.2363 
  62   0.0000       3.237917        88.1082 
  63   0.0000       3.420608        93.0795 

                 SPIN DOWN ORBITALS
  NO   OCC          E(Eh)            E(eV) 
   0   1.0000     -26.263805      -714.6745 
   1   1.0000     -20.623494      -561.1938 
   2   1.0000     -11.378719      -309.6307 
   3   1.0000     -11.244319      -305.9735 
   4   1.0000      -1.579305       -42.9751 
   5   1.0000      -1.368988       -37.2520 
   6   1.0000      -1.008164       -27.4335 
   7   1.0000      -0.836156       -22.7530 
   8   1.0000      -0.722103       -19.6494 
   9   1.0000      -0.696872       -18.9629 
  10   1.0000      -0.672046       -18.2873 
  11   1.0000      -0.593262       -16.1435 
  12   1.0000      -0.588799       -16.0220 
  13   1.0000      -0.558649       -15.2016 
  14   1.0000      -0.511219       -13.9110 
  15   1.0000      -0.499787       -13.5999 
  16   0.0000       0.065660         1.7867 
  17   0.0000       0.249351         6.7852 
  18   0.0000       0.285616         7.7720 
  19   0.0000       0.302727         8.2376 
  20   0.0000       0.309156         8.4126 
  21   0.0000       0.377036        10.2597 
  22   0.0000       0.398763        10.8509 
  23   0.0000       0.452201        12.3050 
  24   0.0000       0.728218        19.8158 
  25   0.0000       0.781080        21.2543 
  26   0.0000       0.789022        21.4704 
  27   0.0000       0.810218        22.0471 
  28   0.0000       0.849618        23.1193 
  29   0.0000       0.883909        24.0524 
  30   0.0000       1.065356        28.9898 
  31   0.0000       1.087358        29.5885 
  32   0.0000       1.128860        30.7178 
  33   0.0000       1.164604        31.6905 
  34   0.0000       1.172239        31.8982 
  35   0.0000       1.226591        33.3772 
  36   0.0000       1.276583        34.7376 
  37   0.0000       1.360965        37.0337 
  38   0.0000       1.489157        40.5220 
  39   0.0000       1.564980        42.5853 
  40   0.0000       1.584367        43.1128 
  41   0.0000       1.614406        43.9302 
  42   0.0000       1.707182        46.4548 
  43   0.0000       1.742022        47.4028 
  44   0.0000       1.899202        51.6799 
  45   0.0000       1.999334        54.4046 
  46   0.0000       2.013203        54.7821 
  47   0.0000       2.093612        56.9701 
  48   0.0000       2.131824        58.0099 
  49   0.0000       2.151713        58.5511 
  50   0.0000       2.206571        60.0438 
  51   0.0000       2.286403        62.2162 
  52   0.0000       2.317794        63.0704 
  53   0.0000       2.378032        64.7095 
  54   0.0000       2.498542        67.9888 
  55   0.0000       2.538476        69.0754 
  56   0.0000       2.557018        69.5800 
  57   0.0000       2.632721        71.6400 
  58   0.0000       2.716789        73.9276 
  59   0.0000       2.873394        78.1890 
  60   0.0000       3.006135        81.8011 
  61   0.0000       3.104512        84.4781 
  62   0.0000       3.252966        88.5177 
  63   0.0000       3.420904        93.0875 

                    ********************************
                    * MULLIKEN POPULATION ANALYSIS *
                    ********************************

--------------------------------------------
MULLIKEN ATOMIC CHARGES AND SPIN POPULATIONS
--------------------------------------------
   0 C :   -0.538825    0.120862
   1 C :    0.539357   -0.187298
   2 F :   -0.483526   -0.004300
   3 O :   -0.290241    0.952574
   4 H :    0.199178   -0.003515
   5 H :    0.187167   -0.007775
   6 H :    0.205386   -0.000486
   7 H :    0.181504    0.129938
Sum of atomic charges         :    0.0000000
Sum of atomic spin populations:    1.0000000

-----------------------------------------------------
MULLIKEN REDUCED ORBITAL CHARGES AND SPIN POPULATIONS
-----------------------------------------------------
CHARGE
  0 C s       :     3.347449  s :     3.347449
      pz      :     0.959327  p :     3.145339
      px      :     1.093237
      py      :     1.092774
      dz2     :     0.010053  d :     0.046037
      dxz     :     0.006502
      dyz     :     0.010253
      dx2y2   :     0.013837
      dxy     :     0.005392
  1 C s       :     3.016357  s :     3.016357
      pz      :     0.992570  p :     2.319243
      px      :     0.688809
      py      :     0.637864
      dz2     :     0.017804  d :     0.125043
      dxz     :     0.017007
      dyz     :     0.019062
      dx2y2   :     0.033544
      dxy     :     0.037626
  2 F s       :     3.986354  s :     3.986354
      pz      :     1.941906  p :     5.481996
      px      :     1.878481
      py      :     1.661609
      dz2     :     0.002212  d :     0.015176
      dxz     :     0.000699
      dyz     :     0.003020
      dx2y2   :     0.003906
      dxy     :     0.005340
  3 O s       :     3.920258  s :     3.920258
      pz      :     1.090133  p :     4.342786
      px      :     1.414531
      py      :     1.838122
      dz2     :     0.004088  d :     0.027196
      dxz     :     0.007347
      dyz     :     0.000273
      dx2y2   :     0.009350
      dxy     :     0.006138
  4 H s       :     0.800822  s :     0.800822
  5 H s       :     0.812833  s :     0.812833
  6 H s       :     0.794614  s :     0.794614
  7 H s       :     0.818496  s :     0.818496

SPIN
  0 C s       :     0.018470  s :     0.018470
      pz      :     0.067031  p :     0.102758
      px      :     0.017938
      py      :     0.017789
      dz2     :    -0.000151  d :    -0.000366
      dxz     :    -0.000008
      dyz     :     0.000024
      dx2y2   :    -0.000267
      dxy     :     0.000037
  1 C s       :    -0.044818  s :    -0.044818
      pz      :    -0.095665  p :    -0.156944
      px      :    -0.035111
      py      :    -0.026168
      dz2     :     0.000865  d :     0.014464
      dxz     :     0.012030
      dyz     :     0.001760
      dx2y2   :     0.000165
      dxy     :    -0.000355
  2 F s       :     0.000043  s :     0.000043
      pz      :    -0.001430  p :    -0.004479
      px      :    -0.001883
      py      :    -0.001166
      dz2     :     0.000022  d :     0.000137
      dxz     :    -0.000001
      dyz     :     0.000136
      dx2y2   :    -0.000042
      dxy     :     0.000022
  3 O s       :     0.029179  s :     0.029179
      pz      :     0.846783  p :     0.924642
      px      :     0.022831
      py      :     0.055028
      dz2     :    -0.000210  d :    -0.001247
      dxz     :    -0.000929
      dyz     :    -0.000006
      dx2y2   :     0.000064
      dxy     :    -0.000166
  4 H s       :    -0.003515  s :    -0.003515
  5 H s       :    -0.007775  s :    -0.007775
  6 H s       :    -0.000486  s :    -0.000486
  7 H s       :     0.129938  s :     0.129938


                     *******************************
                     * LOEWDIN POPULATION ANALYSIS *
                     *******************************

-------------------------------------------
LOEWDIN ATOMIC CHARGES AND SPIN POPULATIONS
-------------------------------------------
   0 C :   -0.364573    0.095997
   1 C :    0.101308   -0.078567
   2 F :   -0.268464   -0.007210
   3 O :   -0.033937    0.900735
   4 H :    0.144043   -0.003182
   5 H :    0.139613   -0.005061
   6 H :    0.149507   -0.000959
   7 H :    0.132503    0.098247

----------------------------------------------------
LOEWDIN REDUCED ORBITAL CHARGES AND SPIN POPULATIONS
----------------------------------------------------
CHARGE
  0 C s       :     2.991996  s :     2.991996
      pz      :     1.049398  p :     3.299118
      px      :     1.122769
      py      :     1.126951
      dz2     :     0.017667  d :     0.073460
      dxz     :     0.010944
      dyz     :     0.016574
      dx2y2   :     0.020693
      dxy     :     0.007582
  1 C s       :     2.867400  s :     2.867400
      pz      :     1.056469  p :     2.749787
      px      :     0.915027
      py      :     0.778291
      dz2     :     0.040861  d :     0.281505
      dxz     :     0.038948
      dyz     :     0.037660
      dx2y2   :     0.075285
      dxy     :     0.088750
  2 F s       :     3.775730  s :     3.775730
      pz      :     1.933266  p :     5.465028
      px      :     1.868321
      py      :     1.663441
      dz2     :     0.003961  d :     0.027705
      dxz     :     0.001327
      dyz     :     0.006741
      dx2y2   :     0.007695
      dxy     :     0.007980
  3 O s       :     3.607687  s :     3.607687
      pz      :     1.081651  p :     4.374864
      px      :     1.493304
      py      :     1.799908
      dz2     :     0.007349  d :     0.051387
      dxz     :     0.015560
      dyz     :     0.000315
      dx2y2   :     0.018619
      dxy     :     0.009543
  4 H s       :     0.855957  s :     0.855957
  5 H s       :     0.860387  s :     0.860387
  6 H s       :     0.850493  s :     0.850493
  7 H s       :     0.867497  s :     0.867497

SPIN
  0 C s       :     0.017153  s :     0.017153
      pz      :     0.053997  p :     0.081059
      px      :     0.015242
      py      :     0.011819
      dz2     :    -0.000690  d :    -0.002215
      dxz     :    -0.000527
      dyz     :    -0.000435
      dx2y2   :    -0.000392
      dxy     :    -0.000171
  1 C s       :    -0.019425  s :    -0.019425
      pz      :    -0.051880  p :    -0.094974
      px      :    -0.026626
      py      :    -0.016467
      dz2     :     0.002246  d :     0.035832
      dxz     :     0.027823
      dyz     :     0.004004
      dx2y2   :     0.001781
      dxy     :    -0.000021
  2 F s       :    -0.000960  s :    -0.000960
      pz      :    -0.001812  p :    -0.005667
      px      :    -0.002299
      py      :    -0.001556
      dz2     :    -0.000048  d :    -0.000584
      dxz     :    -0.000182
      dyz     :    -0.000014
      dx2y2   :    -0.000200
      dxy     :    -0.000140
  3 O s       :     0.017950  s :     0.017950
      pz      :     0.818811  p :     0.885734
      px      :     0.014629
      py      :     0.052293
      dz2     :     0.000075  d :    -0.002949
      dxz     :    -0.001966
      dyz     :     0.000001
      dx2y2   :    -0.000642
      dxy     :    -0.000416
  4 H s       :    -0.003182  s :    -0.003182
  5 H s       :    -0.005061  s :    -0.005061
  6 H s       :    -0.000959  s :    -0.000959
  7 H s       :     0.098247  s :     0.098247


                      *****************************
                      * MAYER POPULATION ANALYSIS *
                      *****************************

  NA   - Mulliken gross atomic population
  ZA   - Total nuclear charge
  QA   - Mulliken gross atomic charge
  VA   - Mayer's total valence
  BVA  - Mayer's bonded valence
  FA   - Mayer's free valence

  ATOM       NA         ZA         QA         VA         BVA        FA
  0 C      6.5388     6.0000    -0.5388     3.7792     3.7672     0.0120
  1 C      5.4606     6.0000     0.5394     3.6476     3.6315     0.0161
  2 F      9.4835     9.0000    -0.4835     0.7568     0.7568     0.0000
  3 O      8.2902     8.0000    -0.2902     1.9572     1.1397     0.8175
  4 H      0.8008     1.0000     0.1992     0.9231     0.9231     0.0000
  5 H      0.8128     1.0000     0.1872     0.9226     0.9226     0.0001
  6 H      0.7946     1.0000     0.2054     0.9221     0.9221     0.0000
  7 H      0.8185     1.0000     0.1815     0.9241     0.9071     0.0169

  Mayer bond orders larger than 0.100000
B(  0-C ,  1-C ) :   0.9336 B(  0-C ,  4-H ) :   0.9420 B(  0-C ,  5-H ) :   0.9389 
B(  0-C ,  6-H ) :   0.9413 B(  1-C ,  2-F ) :   0.7356 B(  1-C ,  3-O ) :   1.0815 
B(  1-C ,  7-H ) :   0.9025 

-------
TIMINGS
-------

Total SCF time: 0 days 0 hours 0 min 8 sec 

Total time                  ....       8.457 sec
Sum of individual times     ....       7.889 sec  ( 93.3%)

Fock matrix formation       ....       7.318 sec  ( 86.5%)
Diagonalization             ....       0.126 sec  (  1.5%)
Density matrix formation    ....       0.003 sec  (  0.0%)
Population analysis         ....       0.088 sec  (  1.0%)
Initial guess               ....       0.108 sec  (  1.3%)
Orbital Transformation      ....       0.000 sec  (  0.0%)
Orbital Orthonormalization  ....       0.000 sec  (  0.0%)
DIIS solution               ....       0.126 sec  (  1.5%)

Maximum memory used throughout the entire SCF-calculation: 228.6 MB

------------------------------------------------------------------------------
                                ORCA  MP2 
------------------------------------------------------------------------------

MP2 will be done in the AO integral direct mode
The Q1-step will be done using symmetric double matrices
Dimension of the basis                    ...   64
Memory devoted for MP2                    ...  256 MB   
Memory needed for all in one shot         ...   18 MB
Number of MOs that can be treated together...  251      
MP2 density construction                  ... relaxed
The MP2 gradient is requested => amplitudes will be stored on disk
Total number of MOs              ...   17
Number of MOs treated per batch  ...   17 
Number of batches necessary      ...    1 
OPERATORS   0/  0 PASS   0
OPERATORS   0/  1 PASS   0
Total number of MOs              ...   17
Number of MOs treated per batch  ...   16 
Number of batches necessary      ...    1 
OPERATORS   1/  0 PASS   0
OPERATORS   1/  1 PASS   0

Correlation energy components
 E2 and T2 for alpha/alpha pairs :     -0.078704570 Eh
 E2 and T2 for beta/beta   pairs :     -0.070631909 Eh
 E2 and T2 for alpha/beta  pairs :     -0.421712685 Eh

-----------------------------------------------
 MP2 CORRELATION ENERGY   :     -0.571049165 Eh
-----------------------------------------------


---------------------
MP2 DENSITY FORMATION
---------------------

Completing the external part of the density      ... done
Storing the unrelaxed density                    ... done

Calculating G(D)                                 ... done
Completing the Lagrangian                        ... done
Solving the Z-vector equations                   ... 

------------------------------------------------------------------------------
                           ORCA CP-SCF CALCULATION
------------------------------------------------------------------------------

Input orbitals are from        ... input.gbw
Input Perturbation             ... input.pin.tmp
Wavefunction output            ... input.pout.tmp
Perturbation mode              ... Real perturbation (singlet)
Solver                         ... POPLE
Max. number of iterations      ... 128
Convergence tolerance          ... 3.000e-05
Integral handling              ... Direct
Number of perturbations        ... 1
Number of operators            ... 2
Orbital ranges used for CP-SCF:
 Operator 0:  Orbitals   0... 16  to  17... 63
 Operator 1:  Orbitals   0... 15  to  16... 63
Variables per perturbation     ... 1567
Memory available               ... 1017.7 MB
Memory needed per perturbation ...   3.2 MB
Perturbations treated per batch... 1
Number of batches              ... 1
     CP-SCF ITERATION   0:   7.5779e-02 (   0.2 sec)
     CP-SCF ITERATION   1:   2.6274e-02 (   0.2 sec)
     CP-SCF ITERATION   2:   7.8802e-03 (   0.2 sec)
     CP-SCF ITERATION   3:   3.5036e-03 (   0.2 sec)
     CP-SCF ITERATION   4:   1.4434e-03 (   0.2 sec)
     CP-SCF ITERATION   5:   7.9076e-04 (   0.2 sec)
     CP-SCF ITERATION   6:   2.5796e-04 (   0.2 sec)
     CP-SCF ITERATION   7:   8.2401e-05 (   0.2 sec)
     CP-SCF ITERATION   8:   4.3487e-05 (   0.2 sec)
     CP-SCF ITERATION   9:   3.3162e-05 (   0.2 sec)
     CP-SCF ITERATION  10:   3.1945e-05 (   0.2 sec)
     CP-SCF ITERATION  11:   3.4214e-05 (   0.2 sec)
     CP-SCF ITERATION  12:   1.6936e-05 (   0.2 sec)
                    *** THE CP-SCF HAS CONVERGED ***
                                                 ... done
Finalizing the relaxed density                   ... done
Transforming P to the AO basis                   ... done
Storing the relaxed density                      ... done

------------------------------------
ENERGY WEIGHTED DENSITY FINALIZATION
------------------------------------

Gathering the parts of the W-matrix              ...                                                                                                           done
Forming the Z-density                            ... done
Transforming Z to the AO basis                   ... done
Calculating G(Z)                                 ... done
Finalizing the W-matrix                          ...                                                                                                           done
Transforming W to the AO basis and storing       ... done

                *********************************************
                * UNRELAXED MP2 DENSITY POPULATION ANALYSIS *
                *********************************************

------------------------------------------------------------------------------
                           ORCA POPULATION ANALYSIS
------------------------------------------------------------------------------
Input electron density              ... input.pmp2ur
Input spin density                  ... input.rmp2ur
BaseName (.gbw .S,...)              ... input

                    ********************************
                    * MULLIKEN POPULATION ANALYSIS *
                    ********************************

------------------------------------------
MULLIKEN ATOMIC CHARGES AND SPIN DENSITIES
------------------------------------------
   0 C :   -0.544388    0.119643
   1 C :    0.520049   -0.181068
   2 F :   -0.471823   -0.004372
   3 O :   -0.284846    0.947806
   4 H :    0.201048   -0.003321
   5 H :    0.189047   -0.007631
   6 H :    0.207277   -0.000361
   7 H :    0.183636    0.129305
Sum of atomic charges       :    0.0000000
Sum of atomic spin densities:    1.0000000

---------------------------------------------------
MULLIKEN REDUCED ORBITAL CHARGES AND SPIN DENSITIES
---------------------------------------------------
CHARGE
  0 C s       :     3.344420  s :     3.344420
      pz      :     0.957436  p :     3.138630
      px      :     1.090672
      py      :     1.090521
      dz2     :     0.013023  d :     0.061338
      dxz     :     0.009573
      dyz     :     0.013301
      dx2y2   :     0.016832
      dxy     :     0.008609
  1 C s       :     3.016263  s :     3.016263
      pz      :     0.987903  p :     2.326690
      px      :     0.693122
      py      :     0.645665
      dz2     :     0.020381  d :     0.136998
      dxz     :     0.020073
      dyz     :     0.021548
      dx2y2   :     0.035258
      dxy     :     0.039739
  2 F s       :     3.984432  s :     3.984432
      pz      :     1.933290  p :     5.452719
      px      :     1.869168
      py      :     1.650261
      dz2     :     0.006013  d :     0.034671
      dxz     :     0.004490
      dyz     :     0.006999
      dx2y2   :     0.007891
      dxy     :     0.009277
  3 O s       :     3.914884  s :     3.914884
      pz      :     1.091055  p :     4.324155
      px      :     1.406005
      py      :     1.827094
      dz2     :     0.007258  d :     0.045808
      dxz     :     0.010942
      dyz     :     0.003972
      dx2y2   :     0.013149
      dxy     :     0.010487
  4 H s       :     0.798952  s :     0.798952
  5 H s       :     0.810953  s :     0.810953
  6 H s       :     0.792723  s :     0.792723
  7 H s       :     0.816364  s :     0.816364

SPIN
  0 C s       :     0.018254  s :     0.018254
      pz      :     0.066034  p :     0.101274
      px      :     0.017759
      py      :     0.017481
      dz2     :    -0.000003  d :     0.000115
      dxz     :     0.000112
      dyz     :     0.000146
      dx2y2   :    -0.000215
      dxy     :     0.000075
  1 C s       :    -0.043951  s :    -0.043951
      pz      :    -0.091079  p :    -0.150978
      px      :    -0.034167
      py      :    -0.025732
      dz2     :     0.000689  d :     0.013860
      dxz     :     0.011772
      dyz     :     0.001665
      dx2y2   :     0.000126
      dxy     :    -0.000393
  2 F s       :     0.000045  s :     0.000045
      pz      :    -0.001439  p :    -0.004551
      px      :    -0.001923
      py      :    -0.001189
      dz2     :     0.000020  d :     0.000134
      dxz     :    -0.000001
      dyz     :     0.000138
      dx2y2   :    -0.000042
      dxy     :     0.000019
  3 O s       :     0.031654  s :     0.031654
      pz      :     0.836610  p :     0.913268
      px      :     0.022091
      py      :     0.054568
      dz2     :     0.001439  d :     0.002884
      dxz     :     0.000426
      dyz     :     0.001185
      dx2y2   :     0.000027
      dxy     :    -0.000194
  4 H s       :    -0.003321  s :    -0.003321
  5 H s       :    -0.007631  s :    -0.007631
  6 H s       :    -0.000361  s :    -0.000361
  7 H s       :     0.129305  s :     0.129305


                     *******************************
                     * LOEWDIN POPULATION ANALYSIS *
                     *******************************

-----------------------------------------
LOEWDIN ATOMIC CHARGES AND SPIN DENSITIES
-----------------------------------------
   0 C :   -0.372618    0.095667
   1 C :    0.085660   -0.073444
   2 F :   -0.258369   -0.007156
   3 O :   -0.031312    0.895801
   4 H :    0.146802   -0.003012
   5 H :    0.142280   -0.004932
   6 H :    0.152178   -0.000849
   7 H :    0.135378    0.097925

--------------------------------------------------
LOEWDIN REDUCED ORBITAL CHARGES AND SPIN DENSITIES
--------------------------------------------------
CHARGE
  0 C s       :     2.992159  s :     2.992159
      pz      :     1.045842  p :     3.289657
      px      :     1.119694
      py      :     1.124121
      dz2     :     0.021052  d :     0.090802
      dxz     :     0.014377
      dyz     :     0.020036
      dx2y2   :     0.024206
      dxy     :     0.011131
  1 C s       :     2.868668  s :     2.868668
      pz      :     1.051126  p :     2.751095
      px      :     0.915848
      py      :     0.784122
      dz2     :     0.043850  d :     0.294576
      dxz     :     0.042114
      dyz     :     0.040403
      dx2y2   :     0.077716
      dxy     :     0.090491
  2 F s       :     3.774282  s :     3.774282
      pz      :     1.924367  p :     5.436254
      px      :     1.859138
      py      :     1.652750
      dz2     :     0.007898  d :     0.047832
      dxz     :     0.005156
      dyz     :     0.010735
      dx2y2   :     0.011807
      dxy     :     0.012237
  3 O s       :     3.603911  s :     3.603911
      pz      :     1.082433  p :     4.356018
      px      :     1.484496
      py      :     1.789090
      dz2     :     0.010835  d :     0.071383
      dxz     :     0.019139
      dyz     :     0.004030
      dx2y2   :     0.023398
      dxy     :     0.013982
  4 H s       :     0.853198  s :     0.853198
  5 H s       :     0.857720  s :     0.857720
  6 H s       :     0.847822  s :     0.847822
  7 H s       :     0.864622  s :     0.864622

SPIN
  0 C s       :     0.017148  s :     0.017148
      pz      :     0.053380  p :     0.080169
      px      :     0.015146
      py      :     0.011643
      dz2     :    -0.000517  d :    -0.001650
      dxz     :    -0.000382
      dyz     :    -0.000292
      dx2y2   :    -0.000335
      dxy     :    -0.000124
  1 C s       :    -0.018828  s :    -0.018828
      pz      :    -0.048073  p :    -0.089571
      px      :    -0.025432
      py      :    -0.016065
      dz2     :     0.002041  d :     0.034955
      dxz     :     0.027325
      dyz     :     0.003886
      dx2y2   :     0.001742
      dxy     :    -0.000039
  2 F s       :    -0.000967  s :    -0.000967
      pz      :    -0.001749  p :    -0.005641
      px      :    -0.002335
      py      :    -0.001556
      dz2     :    -0.000047  d :    -0.000548
      dxz     :    -0.000174
      dyz     :     0.000007
      dx2y2   :    -0.000192
      dxy     :    -0.000142
  3 O s       :     0.019965  s :     0.019965
      pz      :     0.808687  p :     0.874646
      px      :     0.014115
      py      :     0.051844
      dz2     :     0.001737  d :     0.001190
      dxz     :    -0.000609
      dyz     :     0.001189
      dx2y2   :    -0.000683
      dxy     :    -0.000445
  4 H s       :    -0.003012  s :    -0.003012
  5 H s       :    -0.004932  s :    -0.004932
  6 H s       :    -0.000849  s :    -0.000849
  7 H s       :     0.097925  s :     0.097925


                      *****************************
                      * MAYER POPULATION ANALYSIS *
                      *****************************

  NA   - Mulliken gross atomic population
  ZA   - Total nuclear charge
  QA   - Mulliken gross atomic charge
  VA   - Mayer's total valence
  BVA  - Mayer's bonded valence
  FA   - Mayer's free valence

  ATOM       NA         ZA         QA         VA         BVA        FA
  0 C      6.5444     6.0000    -0.5444     3.8731     3.6152     0.2580
  1 C      5.4800     6.0000     0.5200     3.7192     3.4596     0.2595
  2 F      9.4718     9.0000    -0.4718     1.0358     0.7127     0.3231
  3 O      8.2848     8.0000    -0.2848     2.1528     1.0835     1.0693
  4 H      0.7990     1.0000     0.2010     0.9254     0.8898     0.0356
  5 H      0.8110     1.0000     0.1890     0.9252     0.8887     0.0365
  6 H      0.7927     1.0000     0.2073     0.9242     0.8891     0.0351
  7 H      0.8164     1.0000     0.1836     0.9268     0.8708     0.0560

  Mayer bond orders larger than 0.100000
B(  0-C ,  1-C ) :   0.8836 B(  0-C ,  4-H ) :   0.9092 B(  0-C ,  5-H ) :   0.9060 
B(  0-C ,  6-H ) :   0.9089 B(  1-C ,  2-F ) :   0.6965 B(  1-C ,  3-O ) :   1.0333 
B(  1-C ,  7-H ) :   0.8688 


                *******************************************
                * RELAXED MP2 DENSITY POPULATION ANALYSIS *
                *******************************************

------------------------------------------------------------------------------
                           ORCA POPULATION ANALYSIS
------------------------------------------------------------------------------
Input electron density              ... input.pmp2re
Input spin density                  ... input.rmp2re
BaseName (.gbw .S,...)              ... input

                    ********************************
                    * MULLIKEN POPULATION ANALYSIS *
                    ********************************

------------------------------------------
MULLIKEN ATOMIC CHARGES AND SPIN DENSITIES
------------------------------------------
   0 C :   -0.537256    0.126257
   1 C :    0.416089   -0.120390
   2 F :   -0.395615   -0.005247
   3 O :   -0.264629    0.859112
   4 H :    0.203480    0.000818
   5 H :    0.189231   -0.006098
   6 H :    0.203194    0.001918
   7 H :    0.185507    0.143631
Sum of atomic charges       :    0.0000000
Sum of atomic spin densities:    1.0000000

---------------------------------------------------
MULLIKEN REDUCED ORBITAL CHARGES AND SPIN DENSITIES
---------------------------------------------------
CHARGE
  0 C s       :     3.321597  s :     3.321597
      pz      :     0.969183  p :     3.161799
      px      :     1.091631
      py      :     1.100985
      dz2     :     0.011556  d :     0.053860
      dxz     :     0.008317
      dyz     :     0.011595
      dx2y2   :     0.014686
      dxy     :     0.007707
  1 C s       :     3.027789  s :     3.027789
      pz      :     0.976649  p :     2.423971
      px      :     0.744975
      py      :     0.702347
      dz2     :     0.018461  d :     0.132151
      dxz     :     0.020499
      dyz     :     0.020345
      dx2y2   :     0.032713
      dxy     :     0.040133
  2 F s       :     3.974216  s :     3.974216
      pz      :     1.918043  p :     5.387527
      px      :     1.850687
      py      :     1.618797
      dz2     :     0.005810  d :     0.033872
      dxz     :     0.004502
      dyz     :     0.007105
      dx2y2   :     0.007823
      dxy     :     0.008632
  3 O s       :     3.896343  s :     3.896343
      pz      :     1.142332  p :     4.323286
      px      :     1.389360
      py      :     1.791594
      dz2     :     0.006425  d :     0.045001
      dxz     :     0.011674
      dyz     :     0.003931
      dx2y2   :     0.012043
      dxy     :     0.010929
  4 H s       :     0.796520  s :     0.796520
  5 H s       :     0.810769  s :     0.810769
  6 H s       :     0.796806  s :     0.796806
  7 H s       :     0.814493  s :     0.814493

SPIN
  0 C s       :     0.016789  s :     0.016789
      pz      :     0.074601  p :     0.108885
      px      :     0.018548
      py      :     0.015735
      dz2     :     0.000060  d :     0.000583
      dxz     :     0.000283
      dyz     :     0.000309
      dx2y2   :    -0.000186
      dxy     :     0.000117
  1 C s       :    -0.032016  s :    -0.032016
      pz      :    -0.055805  p :    -0.103522
      px      :    -0.025232
      py      :    -0.022485
      dz2     :     0.000906  d :     0.015147
      dxz     :     0.012224
      dyz     :     0.002113
      dx2y2   :     0.000059
      dxy     :    -0.000154
  2 F s       :     0.000126  s :     0.000126
      pz      :    -0.000735  p :    -0.005519
      px      :    -0.002206
      py      :    -0.002578
      dz2     :     0.000020  d :     0.000146
      dxz     :    -0.000006
      dyz     :     0.000161
      dx2y2   :    -0.000040
      dxy     :     0.000011
  3 O s       :     0.026373  s :     0.026373
      pz      :     0.762483  p :     0.830027
      px      :     0.015057
      py      :     0.052487
      dz2     :     0.001685  d :     0.002712
      dxz     :     0.000085
      dyz     :     0.001224
      dx2y2   :    -0.000026
      dxy     :    -0.000256
  4 H s       :     0.000818  s :     0.000818
  5 H s       :    -0.006098  s :    -0.006098
  6 H s       :     0.001918  s :     0.001918
  7 H s       :     0.143631  s :     0.143631


                     *******************************
                     * LOEWDIN POPULATION ANALYSIS *
                     *******************************

-----------------------------------------
LOEWDIN ATOMIC CHARGES AND SPIN DENSITIES
-----------------------------------------
   0 C :   -0.388310    0.108301
   1 C :    0.044771   -0.031228
   2 F :   -0.223417   -0.006712
   3 O :   -0.047625    0.819094
   4 H :    0.155866   -0.000532
   5 H :    0.150116   -0.004090
   6 H :    0.157500    0.000434
   7 H :    0.151098    0.114733

--------------------------------------------------
LOEWDIN REDUCED ORBITAL CHARGES AND SPIN DENSITIES
--------------------------------------------------
CHARGE
  0 C s       :     2.994121  s :     2.994121
      pz      :     1.048089  p :     3.310988
      px      :     1.126308
      py      :     1.136590
      dz2     :     0.019336  d :     0.083201
      dxz     :     0.013033
      dyz     :     0.018276
      dx2y2   :     0.022277
      dxy     :     0.010279
  1 C s       :     2.875486  s :     2.875486
      pz      :     1.037345  p :     2.788778
      px      :     0.936008
      py      :     0.815425
      dz2     :     0.042003  d :     0.290964
      dxz     :     0.042833
      dyz     :     0.039262
      dx2y2   :     0.075723
      dxy     :     0.091143
  2 F s       :     3.776853  s :     3.776853
      pz      :     1.913525  p :     5.397881
      px      :     1.849334
      py      :     1.635023
      dz2     :     0.008035  d :     0.048683
      dxz     :     0.005217
      dyz     :     0.010781
      dx2y2   :     0.012093
      dxy     :     0.012558
  3 O s       :     3.603966  s :     3.603966
      pz      :     1.132221  p :     4.372477
      px      :     1.477310
      py      :     1.762946
      dz2     :     0.010309  d :     0.071181
      dxz     :     0.019138
      dyz     :     0.003993
      dx2y2   :     0.022964
      dxy     :     0.014775
  4 H s       :     0.844134  s :     0.844134
  5 H s       :     0.849884  s :     0.849884
  6 H s       :     0.842500  s :     0.842500
  7 H s       :     0.848902  s :     0.848902

SPIN
  0 C s       :     0.018350  s :     0.018350
      pz      :     0.063067  p :     0.090646
      px      :     0.016740
      py      :     0.010839
      dz2     :    -0.000328  d :    -0.000695
      dxz     :    -0.000045
      dyz     :     0.000006
      dx2y2   :    -0.000291
      dxy     :    -0.000037
  1 C s       :    -0.013283  s :    -0.013283
      pz      :    -0.023399  p :    -0.054937
      px      :    -0.018249
      py      :    -0.013289
      dz2     :     0.002199  d :     0.036991
      dxz     :     0.028648
      dyz     :     0.004802
      dx2y2   :     0.001100
      dxy     :     0.000242
  2 F s       :    -0.000935  s :    -0.000935
      pz      :    -0.000546  p :    -0.005569
      px      :    -0.002424
      py      :    -0.002600
      dz2     :    -0.000014  d :    -0.000208
      dxz     :    -0.000149
      dyz     :     0.000216
      dx2y2   :    -0.000140
      dxy     :    -0.000122
  3 O s       :     0.015933  s :     0.015933
      pz      :     0.741661  p :     0.801185
      px      :     0.010122
      py      :     0.049402
      dz2     :     0.001932  d :     0.001977
      dxz     :    -0.000261
      dyz     :     0.001233
      dx2y2   :    -0.000486
      dxy     :    -0.000441
  4 H s       :    -0.000532  s :    -0.000532
  5 H s       :    -0.004090  s :    -0.004090
  6 H s       :     0.000434  s :     0.000434
  7 H s       :     0.114733  s :     0.114733


                      *****************************
                      * MAYER POPULATION ANALYSIS *
                      *****************************

  NA   - Mulliken gross atomic population
  ZA   - Total nuclear charge
  QA   - Mulliken gross atomic charge
  VA   - Mayer's total valence
  BVA  - Mayer's bonded valence
  FA   - Mayer's free valence

  ATOM       NA         ZA         QA         VA         BVA        FA
  0 C      6.5373     6.0000    -0.5373     3.8877     3.6359     0.2518
  1 C      5.5839     6.0000     0.4161     3.9300     3.7009     0.2291
  2 F      9.3956     9.0000    -0.3956     1.1479     0.8327     0.3152
  3 O      8.2646     8.0000    -0.2646     2.2492     1.3517     0.8975
  4 H      0.7965     1.0000     0.2035     0.9278     0.8931     0.0347
  5 H      0.8108     1.0000     0.1892     0.9275     0.8914     0.0361
  6 H      0.7968     1.0000     0.2032     0.9271     0.8923     0.0348
  7 H      0.8145     1.0000     0.1855     0.9237     0.8694     0.0544

  Mayer bond orders larger than 0.100000
B(  0-C ,  1-C ) :   0.8688 B(  0-C ,  4-H ) :   0.9070 B(  0-C ,  5-H ) :   0.9023 
B(  0-C ,  6-H ) :   0.9057 B(  1-C ,  2-F ) :   0.7938 B(  1-C ,  3-O ) :   1.2227 
B(  1-C ,  7-H ) :   0.8289 


----------------------------------
MP2 DERIVATIVE INTEGRAL GENERATION
----------------------------------


Input Wavefunction Amplitudes       ... input.mp2tbb.tmp
Input Correlated Electron Density   ... input.pmp2re
Input Energy Weighted Density       ... input.wmp2.tmp
Input SCF Electron Density          ... input.scfp

One-Electron Terms    ...
                        ... One-Electron Terms done
Prescreening matrices              ... done

Batch handling in the gradient evaluation:
Memory available                      ...  256.0 MB
Memory per occupied orbital in Q2     ...    1.0 MB
Memory per occupied orbital in Q3     ...    0.0 MB
Total memory requirement per |i>      ...    1.0 MB
Max. Number of orbitals possible      ...    245
Number of orbitals treated per batch  ...     33
Number of batches to be done          ...      1
Batch   0: i=    0 ...    32

---------------------------------------
MP2 TOTAL ENERGY:     -252.881583772 Eh
---------------------------------------

The final MP2 gradient
  0:   0.02004983  -0.00849216  -0.00613958
  1:  -0.09216057   0.00885005  -0.00248118
  2:   0.00300138  -0.00564274   0.00277124
  3:   0.05644201   0.00499997   0.00109826
  4:  -0.00155348  -0.00031846   0.00472663
  5:   0.00044164   0.00374584   0.00193630
  6:  -0.00145888  -0.00120057  -0.00252596
  7:   0.01523808  -0.00194192   0.00061429

-----------------------------------
NORM OF THE MP2 GRADIENT:  0.112425
-----------------------------------

Maximum memory used throughout the entire MP2-calculation: 111.3 MB

-------------------------   --------------------
FINAL SINGLE POINT ENERGY      -252.881583771555
-------------------------   --------------------

------------------------------------------------------------------------------
                         ORCA GEOMETRY RELAXATION STEP
------------------------------------------------------------------------------

Reading the OPT-File                    .... done
Getting information on internals        .... done
Copying old internal coords+grads       .... done
Making the new internal coordinates     .... (new redundants).... done
Validating the new internal coordinates .... (new redundants).... done
Calculating the B-matrix                .... done
Calculating the G,G- and P matrices     .... done
Transforming gradient to internals      .... done
Projecting the internal gradient        .... done
Number of atoms                         ....   8
Number of internal coordinates          ....  28
Current Energy                          ....  -252.881583772 Eh
Current gradient norm                   ....     0.112425175 Eh/bohr
Maximum allowed component of the step   ....  0.300
Current trust radius                    ....  0.300
Evaluating the initial hessian          ....  (Almloef) done
Projecting the Hessian                  .... done
Forming the augmented Hessian           .... done
Diagonalizing the augmented Hessian     .... done
Last element of RFO vector              ....  0.989814736
Lowest eigenvalues of augmented Hessian:
 -0.007106710  0.008652220  0.109756781  0.115722687  0.115850883
Length of the computed step             ....  0.143826379
The final length of the internal step   ....  0.143826379
Converting the step to cartesian space:
 Initial RMS(Int)=    0.0271806307
Transforming coordinates:
 Iter   0:  RMS(Cart)=    0.0222627127 RMS(Int)=    0.0273057460
 Iter   1:  RMS(Cart)=    0.0007151282 RMS(Int)=    0.0006014035
 Iter   2:  RMS(Cart)=    0.0000165248 RMS(Int)=    0.0000171222
 Iter   3:  RMS(Cart)=    0.0000008428 RMS(Int)=    0.0000007385
 Iter   4:  RMS(Cart)=    0.0000000235 RMS(Int)=    0.0000000230
done
Storing new coordinates                 .... done

                                .--------------------.
          ----------------------|Geometry convergence|-------------------------
          Item                value                   Tolerance       Converged
          ---------------------------------------------------------------------
          RMS gradient        0.0121506046            0.0000080000      NO
          MAX gradient        0.0562846135            0.0000300000      NO
          RMS step            0.0271806307            0.0001000000      NO
          MAX step            0.0608877734            0.0002000000      NO
          ........................................................
          Max(Bonds)      0.0322      Max(Angles)    2.93
          Max(Dihed)        2.61      Max(Improp)    0.00
          ---------------------------------------------------------------------

The optimization has not yet converged - more geometry cycles are needed


    ---------------------------------------------------------------------------
                         Redundant Internal Coordinates
                            (Angstroem and degrees)

        Definition                    Value    dE/dq     Step     New-Value
    ----------------------------------------------------------------------------
     1. B(C   1,C   0)                1.5676  0.010644 -0.0169    1.5506   
     2. B(F   2,C   1)                1.4121 -0.003120  0.0034    1.4155   
     3. B(O   3,C   1)                1.2555 -0.056285  0.0322    1.2877   
     4. B(H   4,C   0)                1.0868 -0.003017  0.0043    1.0911   
     5. B(H   5,C   0)                1.0843 -0.003990  0.0056    1.0900   
     6. B(H   6,C   0)                1.0847 -0.001654  0.0023    1.0870   
     7. B(H   7,C   1)                1.1283  0.008183 -0.0135    1.1147   
     8. A(C   1,C   0,H   5)          108.84 -0.002194    0.43    109.27   
     9. A(H   4,C   0,H   6)          110.42  0.001012   -0.28    110.14   
    10. A(C   1,C   0,H   4)          106.46 -0.006399    1.25    107.70   
    11. A(H   4,C   0,H   5)          110.23  0.002454   -0.10    110.13   
    12. A(H   5,C   0,H   6)          111.21 -0.000691   -0.10    111.10   
    13. A(C   1,C   0,H   6)          109.55  0.005589   -1.13    108.42   
    14. A(O   3,C   1,H   7)          112.66  0.005342   -1.47    111.19   
    15. A(F   2,C   1,O   3)          114.86 -0.003253   -0.29    114.57   
    16. A(F   2,C   1,H   7)          102.12 -0.003221    2.32    104.44   
    17. A(C   0,C   1,H   7)          102.72 -0.015296    2.93    105.65   
    18. A(C   0,C   1,O   3)          116.94  0.015048   -2.76    114.18   
    19. A(C   0,C   1,F   2)          105.84 -0.002190    0.25    106.09   
    20. D(F   2,C   1,C   0,H   5)    173.54 -0.004118    1.81    175.35   
    21. D(F   2,C   1,C   0,H   6)     51.75 -0.005361    2.37     54.12   
    22. D(O   3,C   1,C   0,H   4)     61.72 -0.000507    0.26     61.98   
    23. D(O   3,C   1,C   0,H   5)    -57.08  0.001280   -0.54    -57.62   
    24. D(O   3,C   1,C   0,H   6)   -178.88  0.000037    0.03   -178.85   
    25. D(H   7,C   1,C   0,H   4)   -174.38  0.003869   -1.07   -175.45   
    26. D(H   7,C   1,C   0,H   5)     66.82  0.005657   -1.87     64.95   
    27. D(H   7,C   1,C   0,H   6)    -54.97  0.004414   -1.30    -56.27   
    28. D(F   2,C   1,C   0,H   4)    -67.66 -0.005905    2.61    -65.05   
    ----------------------------------------------------------------------------

         *************************************************************
         *                GEOMETRY OPTIMIZATION CYCLE   2            *
         *************************************************************
---------------------------------
CARTESIAN COORDINATES (ANGSTROEM)
---------------------------------
  C      1.069600    0.047142    0.010756
  C      0.482208    0.513414    1.367949
  F      1.062514    1.777171    1.631899
  O     -0.804300    0.494706    1.419881
  H      0.718878    0.738074   -0.757456
  H      0.719507   -0.962335   -0.204744
  H      2.154144    0.079583    0.076520
  H      0.926910   -0.161295    2.135845

----------------------------
CARTESIAN COORDINATES (A.U.)
----------------------------
  NO LB      ZA    FRAG     MASS         X           Y           Z
   0 C     6.0000    0    12.011    2.021251    0.089085    0.020326
   1 C     6.0000    0    12.011    0.911240    0.970212    2.585048
   2 F     9.0000    0    18.998    2.007860    3.358366    3.083842
   3 O     8.0000    0    15.999   -1.519907    0.934859    2.683187
   4 H     1.0000    0     1.008    1.358482    1.394757   -1.431384
   5 H     1.0000    0     1.008    1.359671   -1.818550   -0.386910
   6 H     1.0000    0     1.008    4.070743    0.150391    0.144603
   7 H     1.0000    0     1.008    1.751606   -0.304803    4.036162

--------------------------------
INTERNAL COORDINATES (ANGSTROEM)
--------------------------------
 C      0   0   0     0.000000000000     0.00000000     0.00000000
 C      1   0   0     1.550616661273     0.00000000     0.00000000
 F      2   1   0     1.415452712587   106.04463369     0.00000000
 O      2   1   3     1.287691439280   114.16680386   127.04270385
 H      1   2   3     1.091119676225   107.70147569   294.95905525
 H      1   2   3     1.089976894917   109.26084113   175.35133487
 H      1   2   3     1.087020712104   108.42251424    54.12592900
 H      2   1   3     1.114744952124   105.65270303   249.57461787

---------------------------
INTERNAL COORDINATES (A.U.)
---------------------------
 C      0   0   0     0.000000000000     0.00000000     0.00000000
 C      1   0   0     2.930240828502     0.00000000     0.00000000
 F      2   1   0     2.674817982305   106.04463369     0.00000000
 O      2   1   3     2.433384165235   114.16680386   127.04270385
 H      1   2   3     2.061917367397   107.70147569   294.95905525
 H      1   2   3     2.059757823695   109.26084113   175.35133487
 H      1   2   3     2.054171447777   108.42251424    54.12592900
 H      2   1   3     2.106562668686   105.65270303   249.57461787

------------------------------------------------------------------------------
                   ___                                                        
                  /   \      - P O W E R E D   B Y -                         
                 /     \                                                     
                 |  |  |   _    _      __       _____    __    __             
                 |  |  |  | |  | |    /  \     |  _  \  |  |  /  |          
                  \  \/   | |  | |   /    \    | | | |  |  | /  /          
                 / \  \   | |__| |  /  /\  \   | |_| |  |  |/  /          
                |  |  |   |  __  | /  /__\  \  |    /   |      \           
                |  |  |   | |  | | |   __   |  |    \   |  |\   \          
                \     /   | |  | | |  |  |  |  | |\  \  |  | \   \       
                 \___/    |_|  |_| |__|  |__|  |_| \__\ |__|  \__/        
[...]
	<< Calculating on displaced geometry   2 (of  48) >>
	<< Calculating on displaced geometry   3 (of  48) >>
	<< Calculating on displaced geometry   4 (of  48) >>
	<< Calculating on displaced geometry   5 (of  48) >>
	<< Calculating on displaced geometry   6 (of  48) >>
	<< Calculating on displaced geometry   7 (of  48) >>
	<< Calculating on displaced geometry   8 (of  48) >>
	<< Calculating on displaced geometry   9 (of  48) >>
	<< Calculating on displaced geometry  10 (of  48) >>
	<< Calculating on displaced geometry  11 (of  48) >>
	<< Calculating on displaced geometry  12 (of  48) >>
	<< Calculating on displaced geometry  13 (of  48) >>
	<< Calculating on displaced geometry  14 (of  48) >>
	<< Calculating on displaced geometry  15 (of  48) >>
	<< Calculating on displaced geometry  16 (of  48) >>
	<< Calculating on displaced geometry  17 (of  48) >>
	<< Calculating on displaced geometry  18 (of  48) >>
	<< Calculating on displaced geometry  19 (of  48) >>
	<< Calculating on displaced geometry  20 (of  48) >>
	<< Calculating on displaced geometry  21 (of  48) >>
	<< Calculating on displaced geometry  22 (of  48) >>
	<< Calculating on displaced geometry  23 (of  48) >>
	<< Calculating on displaced geometry  24 (of  48) >>
	<< Calculating on displaced geometry  25 (of  48) >>
	<< Calculating on displaced geometry  26 (of  48) >>
	<< Calculating on displaced geometry  27 (of  48) >>
	<< Calculating on displaced geometry  28 (of  48) >>
	<< Calculating on displaced geometry  29 (of  48) >>
	<< Calculating on displaced geometry  30 (of  48) >>
	<< Calculating on displaced geometry  31 (of  48) >>
	<< Calculating on displaced geometry  32 (of  48) >>
	<< Calculating on displaced geometry  33 (of  48) >>
	<< Calculating on displaced geometry  34 (of  48) >>
	<< Calculating on displaced geometry  35 (of  48) >>
	<< Calculating on displaced geometry  36 (of  48) >>
	<< Calculating on displaced geometry  37 (of  48) >>
	<< Calculating on displaced geometry  38 (of  48) >>
	<< Calculating on displaced geometry  39 (of  48) >>
	<< Calculating on displaced geometry  40 (of  48) >>
	<< Calculating on displaced geometry  41 (of  48) >>
	<< Calculating on displaced geometry  42 (of  48) >>
	<< Calculating on displaced geometry  43 (of  48) >>
	<< Calculating on displaced geometry  44 (of  48) >>
	<< Calculating on displaced geometry  45 (of  48) >>
	<< Calculating on displaced geometry  46 (of  48) >>
	<< Calculating on displaced geometry  47 (of  48) >>
	<< Calculating on displaced geometry  48 (of  48) >>

-----------------------
VIBRATIONAL FREQUENCIES
-----------------------

Scaling factor for frequencies =  1.000000000 (already applied!)

   0:         0.00 cm**-1
   1:         0.00 cm**-1
   2:         0.00 cm**-1
   3:         0.00 cm**-1
   4:         0.00 cm**-1
   5:         0.00 cm**-1
   6:       244.86 cm**-1
   7:       366.23 cm**-1
   8:       447.15 cm**-1
   9:       566.45 cm**-1
  10:       895.00 cm**-1
  11:       965.90 cm**-1
  12:      1087.98 cm**-1
  13:      1114.30 cm**-1
  14:      1187.36 cm**-1
  15:      1316.92 cm**-1
  16:      1395.19 cm**-1
  17:      1456.94 cm**-1
  18:      1547.77 cm**-1
  19:      1555.27 cm**-1
  20:      3072.43 cm**-1
  21:      3136.83 cm**-1
  22:      3239.81 cm**-1
  23:      3245.86 cm**-1


------------
NORMAL MODES
------------

These modes are the cartesian displacements weighted by the diagonal matrix
M(i,i)=1/sqrt(m[i]) where m[i] is the mass of the displaced atom
Thus, these vectors are normalized but *not* orthogonal

                  0          1          2          3          4          5    
      0       0.000000   0.000000   0.000000   0.000000   0.000000   0.000000
      1       0.000000   0.000000   0.000000   0.000000   0.000000   0.000000
      2       0.000000   0.000000   0.000000   0.000000   0.000000   0.000000
      3       0.000000   0.000000   0.000000   0.000000   0.000000   0.000000
      4       0.000000   0.000000   0.000000   0.000000   0.000000   0.000000
      5       0.000000   0.000000   0.000000   0.000000   0.000000   0.000000
      6       0.000000   0.000000   0.000000   0.000000   0.000000   0.000000
      7       0.000000   0.000000   0.000000   0.000000   0.000000   0.000000
      8       0.000000   0.000000   0.000000   0.000000   0.000000   0.000000
      9       0.000000   0.000000   0.000000   0.000000   0.000000   0.000000
     10       0.000000   0.000000   0.000000   0.000000   0.000000   0.000000
     11       0.000000   0.000000   0.000000   0.000000   0.000000   0.000000
     12       0.000000   0.000000   0.000000   0.000000   0.000000   0.000000
     13       0.000000   0.000000   0.000000   0.000000   0.000000   0.000000
     14       0.000000   0.000000   0.000000   0.000000   0.000000   0.000000
     15       0.000000   0.000000   0.000000   0.000000   0.000000   0.000000
     16       0.000000   0.000000   0.000000   0.000000   0.000000   0.000000
     17       0.000000   0.000000   0.000000   0.000000   0.000000   0.000000
     18       0.000000   0.000000   0.000000   0.000000   0.000000   0.000000
     19       0.000000   0.000000   0.000000   0.000000   0.000000   0.000000
     20       0.000000   0.000000   0.000000   0.000000   0.000000   0.000000
     21       0.000000   0.000000   0.000000   0.000000   0.000000   0.000000
     22       0.000000   0.000000   0.000000   0.000000   0.000000   0.000000
     23       0.000000   0.000000   0.000000   0.000000   0.000000   0.000000
                  6          7          8          9         10         11    
      0      -0.029688  -0.203652   0.098707  -0.012060   0.081081   0.113519
      1      -0.012715  -0.095643  -0.180347  -0.014220  -0.146214   0.036492
      2      -0.003016  -0.006930  -0.175767  -0.010467  -0.158015   0.038523
      3       0.004569   0.127285   0.038096  -0.179760  -0.018926   0.078319
      4       0.000518   0.047661   0.061172   0.251959  -0.123790   0.055932
      5       0.007620   0.083040  -0.216013  -0.162702   0.117487  -0.026802
      6       0.019275  -0.026065  -0.141031   0.300334   0.050022  -0.014005
      7      -0.012487   0.107836   0.036348   0.128578   0.146447  -0.052202
      8       0.036492   0.121433   0.164613   0.109214   0.042651  -0.014652
      9       0.004184   0.137550   0.040905  -0.207679  -0.106072  -0.077317
     10       0.028924  -0.068171   0.115141  -0.308706   0.008655  -0.008025
     11      -0.045741  -0.199400   0.145113   0.001756   0.008867   0.014486
     12      -0.496446  -0.211059   0.228670   0.205747  -0.112038  -0.295205
     13      -0.365361  -0.023018  -0.430835  -0.325731   0.183322  -0.006890
     14      -0.087474   0.061488  -0.461254  -0.393625   0.218539   0.190089
     15       0.419350  -0.602004  -0.002703  -0.065378   0.174050  -0.313463
     16      -0.218700   0.003679  -0.224634  -0.077445  -0.071399   0.130021
     17       0.271494   0.143466   0.165404   0.359292  -0.669661   0.243229
     18      -0.049152  -0.187385   0.107904  -0.009471   0.076630   0.123616
     19       0.516064  -0.456543  -0.353549  -0.155838   0.085161  -0.202674
     20      -0.200518  -0.309173  -0.123116   0.190248  -0.362525  -0.692487
     21      -0.004138   0.218468   0.044833  -0.209417  -0.138456  -0.309689
     22      -0.010405   0.097222  -0.083509   0.202662   0.122703   0.089475
     23      -0.000122   0.073518  -0.318457  -0.178737   0.351980   0.165733
                 12         13         14         15         16         17    
      0      -0.024959   0.019694   0.048472   0.086620  -0.044348   0.042090
      1      -0.068850  -0.048206   0.105728  -0.054334  -0.034788  -0.047965
      2       0.115637  -0.163824  -0.067158   0.024943   0.012148  -0.129725
      3      -0.116363  -0.143726  -0.158538  -0.152470   0.106069   0.029881
      4      -0.010875   0.294463  -0.146919   0.071350   0.092573   0.017582
      5      -0.207514   0.191030   0.092645   0.056910   0.062594   0.013064
      6       0.004417  -0.037403   0.017776   0.006865  -0.009181  -0.002147
      7       0.034664  -0.154170   0.070011  -0.002604   0.012918  -0.000356
      8       0.025964  -0.018297  -0.021358  -0.009325  -0.018842  -0.001593
      9       0.159547   0.143560   0.101252   0.026473  -0.020378  -0.014529
     10      -0.015191  -0.031318   0.001781   0.003872  -0.018181  -0.003210
     11       0.022616   0.004773   0.003698  -0.008592   0.000424   0.002064
     12      -0.225352   0.132060  -0.017187  -0.209665   0.165399  -0.230116
     13       0.243264  -0.033679  -0.253835   0.054627   0.047747   0.351540
     14       0.483879  -0.218224  -0.345134   0.262271  -0.021467   0.368909
     15      -0.022045   0.110214  -0.186124  -0.164599   0.166933  -0.269204
     16       0.024799  -0.052820   0.060838   0.053710  -0.061695  -0.071978
     17      -0.287068  -0.274983   0.449915  -0.100754  -0.172981   0.512817
     18      -0.045518   0.022036   0.058740   0.080293  -0.037957   0.021550
     19       0.216246   0.052608  -0.267278   0.032377   0.073346   0.217024
     20      -0.038193  -0.046962  -0.120488  -0.259965  -0.043198   0.508842
     21      -0.638728  -0.360041  -0.486021   0.529044  -0.533353  -0.108743
     22       0.053446   0.502328  -0.396690  -0.355846  -0.702834  -0.076902
     23       0.087862   0.485084   0.055849  -0.564771  -0.304574  -0.003209
                 18         19         20         21         22         23    
      0       0.035302  -0.034490  -0.000617  -0.016302  -0.066280  -0.058325
      1      -0.030153  -0.038296   0.002784   0.011066   0.052270  -0.074156
      2       0.024477   0.005437  -0.002011   0.044075  -0.040654  -0.000345
      3       0.025617  -0.027226   0.021893  -0.000493  -0.001283  -0.000863
      4      -0.011284  -0.023147  -0.047575  -0.000406   0.002140  -0.001814
      5       0.006119  -0.000653   0.061073  -0.001693  -0.003148   0.000490
      6      -0.001580   0.002092  -0.000408   0.000135   0.000135   0.000211
      7       0.001730   0.001104  -0.000677   0.000049  -0.000181   0.000467
      8      -0.001131   0.000556  -0.000234  -0.000079   0.000034   0.000067
      9      -0.005192   0.005155   0.003262   0.000651   0.000075   0.000193
     10       0.000070   0.002893  -0.000492  -0.000073  -0.000140   0.000117
     11      -0.000101  -0.000392   0.001477  -0.000144  -0.000009   0.000129
     12       0.044968   0.619199   0.011694  -0.210573   0.259533  -0.089995
     13      -0.325975   0.318581  -0.018404   0.375606  -0.477986   0.132338
     14      -0.263695  -0.007791   0.016446  -0.413146   0.536305  -0.160498
     15      -0.618007  -0.032592  -0.009389  -0.175095  -0.073065   0.242624
     16       0.242968  -0.101637  -0.017699  -0.523500  -0.179574   0.745460
     17      -0.229295   0.367206  -0.000346  -0.104935  -0.045162   0.156312
     18       0.002337  -0.037416   0.020709   0.570139   0.604640   0.548107
     19       0.555343   0.398835   0.001666   0.023789   0.034450   0.010095
     20       0.115466  -0.443966  -0.002330   0.013518   0.000885   0.007874
     21      -0.043003   0.064961  -0.320618   0.002785   0.010215  -0.002517
     22      -0.012315   0.049630   0.588722  -0.002681  -0.019606   0.006673
     23       0.035871   0.023273  -0.736564   0.003326   0.029398  -0.008728


-----------
IR SPECTRUM
-----------

 Mode   freq       eps      Int      T**2         TX        TY        TZ
       cm**-1   L/(mol*cm) km/mol    a.u.
----------------------------------------------------------------------------
  6:    244.86   0.000030    0.15  0.000038  (-0.005011 -0.003384  0.001219)
  7:    366.23   0.000079    0.40  0.000067  ( 0.002142 -0.002744  0.007433)
  8:    447.15   0.002950   14.91  0.002059  ( 0.014974 -0.014139 -0.040432)
  9:    566.45   0.001268    6.41  0.000699  (-0.019863  0.011521 -0.013088)
 10:    895.00   0.003585   18.12  0.001250  (-0.013017 -0.032559 -0.004540)
 11:    965.90   0.003304   16.70  0.001068  ( 0.005611  0.031096  0.008311)
 12:   1087.98   0.006546   33.08  0.001878  (-0.031597 -0.018435 -0.023226)
 13:   1114.30   0.011222   56.71  0.003143  ( 0.004921  0.052728  0.018396)
 14:   1187.36   0.013638   68.92  0.003584  (-0.035949 -0.047661  0.004529)
 15:   1316.92   0.000295    1.49  0.000070  (-0.007058  0.001677  0.004162)
 16:   1395.19   0.007701   38.92  0.001723  ( 0.026870  0.028235  0.014260)
 17:   1456.94   0.002477   12.52  0.000531  ( 0.005806  0.012397  0.018524)
 18:   1547.77   0.001163    5.88  0.000235  (-0.009077  0.010241 -0.006877)
 19:   1555.27   0.000386    1.95  0.000078  ( 0.004754  0.006967 -0.002531)
 20:   3072.43   0.003283   16.59  0.000333  (-0.002548 -0.012177  0.013368)
 21:   3136.83   0.000794    4.01  0.000079  (-0.004647  0.003146  0.006894)
 22:   3239.81   0.000909    4.59  0.000088  (-0.005647  0.005670 -0.004848)
 23:   3245.86   0.001076    5.44  0.000103  (-0.005225 -0.008701 -0.000704)

* The epsilon (eps) is given for a Dirac delta lineshape.
** The dipole moment derivative (T) already includes vibrational overlap.

The first frequency considered to be a vibration is 6
The total number of vibrations considered is 18


--------------------------
THERMOCHEMISTRY AT 298.15K
--------------------------

Temperature         ... 298.15 K
Pressure            ... 1.00 atm
Total Mass          ... 63.05 AMU

Throughout the following assumptions are being made:
  (1) The electronic state is orbitally nondegenerate
      but the spin degeneracy is treated
  (2) There are no thermally accessible electronically excited states
  (3) Hindered rotations indicated by low frequency modes are not
      treated as such but are treated as vibrations and this may
      cause some error
  (4) All equations used are the standard statistical mechanics
      equations for an ideal gas
  (5) All vibrations are strictly harmonic

freq.     244.86  E(vib)   ...       0.31 
freq.     366.23  E(vib)   ...       0.22 
freq.     447.15  E(vib)   ...       0.17 
freq.     566.45  E(vib)   ...       0.11 
freq.     895.00  E(vib)   ...       0.03 
freq.     965.90  E(vib)   ...       0.03 
freq.    1087.98  E(vib)   ...       0.02 
freq.    1114.30  E(vib)   ...       0.01 
freq.    1187.36  E(vib)   ...       0.01 
freq.    1316.92  E(vib)   ...       0.01 
freq.    1395.19  E(vib)   ...       0.00 
freq.    1456.94  E(vib)   ...       0.00 
freq.    1547.77  E(vib)   ...       0.00 
freq.    1555.27  E(vib)   ...       0.00 
freq.    3072.43  E(vib)   ...       0.00 
freq.    3136.83  E(vib)   ...       0.00 
freq.    3239.81  E(vib)   ...       0.00 
freq.    3245.86  E(vib)   ...       0.00 

------------
INNER ENERGY
------------

The inner energy is: U= E(el) + E(ZPE) + E(vib) + E(rot) + E(trans)
    E(el)   - is the total energy from the electronic structure calculation
              = E(kin-el) + E(nuc-el) + E(el-el) + E(nuc-nuc)
    E(ZPE)  - the the zero temperature vibrational energy from the frequency calculation
    E(vib)  - the the finite temperature correction to E(ZPE) due to population
              of excited vibrational states
    E(rot)  - is the rotational thermal energy
    E(trans)- is the translational thermal energy

Summary of contributions to the inner energy U:
Electronic energy                ...   -252.89132539 Eh
Zero point energy                ...      0.06115111 Eh      38.37 kcal/mol
Thermal vibrational correction   ...      0.00147939 Eh       0.93 kcal/mol
Thermal rotational correction    ...      0.00141627 Eh       0.89 kcal/mol
Thermal translational correction ...      0.00141627 Eh       0.89 kcal/mol
-----------------------------------------------------------------------
Total thermal energy                   -252.82586236 Eh


Summary of corrections to the electronic energy:
(perhaps to be used in another calculation)
Total thermal correction                  0.00431193 Eh       2.71 kcal/mol
Non-thermal (ZPE) correction              0.06115111 Eh      38.37 kcal/mol
-----------------------------------------------------------------------
Total correction                          0.06546304 Eh      41.08 kcal/mol


--------
ENTHALPY
--------

The enthalpy is H = U + kB*T
                kB is Boltzmann's constant
Total free energy                 ...   -252.82586236 Eh 
Thermal Enthalpy correction       ...      0.00094421 Eh       0.59 kcal/mol
-----------------------------------------------------------------------
Total Enthalpy                    ...   -252.82491815 Eh


Note: Only C1 symmetry has been detected, increase convergence thresholds 
      if your molecule has a higher symmetry. Symmetry factor of 1.0 is   
      used for the rotational entropy correction. 
 

Note: Rotational entropy computed according to Herzberg 
Infrared and Raman Spectra, Chapter V,1, Van Nostrand Reinhold, 1945 
Point Group:  C1, Symmetry Number:   1  
Rotational constants in cm-1:     0.332502     0.301540     0.177081 

Vibrational entropy computed according to the QRRHO of S. Grimme
Chem.Eur.J. 2012 18 9955


-------
ENTROPY
-------

The entropy contributions are T*S = T*(S(el)+S(vib)+S(rot)+S(trans))
     S(el)   - electronic entropy
     S(vib)  - vibrational entropy
     S(rot)  - rotational entropy
     S(trans)- translational entropy
The entropies will be listed as multiplied by the temperature to get
units of energy

Electronic entropy                ...      0.00065446 Eh      0.41 kcal/mol
Vibrational entropy               ...      0.00222512 Eh      1.40 kcal/mol
Rotational entropy                ...      0.01141386 Eh      7.16 kcal/mol
Translational entropy             ...      0.01821802 Eh     11.43 kcal/mol
-----------------------------------------------------------------------
Final entropy term                ...      0.03251146 Eh     20.40 kcal/mol

In case the symmetry of your molecule has not been determined correctly
or in case you have a reason to use a different symmetry number we print 
out the resulting rotational entropy values for sn=1,12 :
 --------------------------------------------------------
|  sn= 1 | S(rot)=       0.01141386 Eh      7.16 kcal/mol|
|  sn= 2 | S(rot)=       0.01075940 Eh      6.75 kcal/mol|
|  sn= 3 | S(rot)=       0.01037657 Eh      6.51 kcal/mol|
|  sn= 4 | S(rot)=       0.01010494 Eh      6.34 kcal/mol|
|  sn= 5 | S(rot)=       0.00989426 Eh      6.21 kcal/mol|
|  sn= 6 | S(rot)=       0.00972211 Eh      6.10 kcal/mol|
|  sn= 7 | S(rot)=       0.00957657 Eh      6.01 kcal/mol|
|  sn= 8 | S(rot)=       0.00945049 Eh      5.93 kcal/mol|
|  sn= 9 | S(rot)=       0.00933928 Eh      5.86 kcal/mol|
|  sn=10 | S(rot)=       0.00923980 Eh      5.80 kcal/mol|
|  sn=11 | S(rot)=       0.00914981 Eh      5.74 kcal/mol|
|  sn=12 | S(rot)=       0.00906766 Eh      5.69 kcal/mol|
 --------------------------------------------------------


-------------------
GIBBS FREE ENERGY
-------------------

The Gibbs free energy is G = H - T*S

Total enthalpy                    ...   -252.82491815 Eh 
Total entropy correction          ...     -0.03251146 Eh    -20.40 kcal/mol
-----------------------------------------------------------------------
Final Gibbs free energy         ...   -252.85742960 Eh

For completeness - the Gibbs free energy minus the electronic energy
G-E(el)                           ...      0.03389579 Eh     21.27 kcal/mol



Timings for individual modules:

Sum of individual times         ...      973.776 sec (=  16.230 min)
GTO integral calculation        ...        2.960 sec (=   0.049 min)   0.3 %
SCF iterations                  ...       62.156 sec (=   1.036 min)   6.4 %
MP2 module                      ...      110.546 sec (=   1.842 min)  11.4 %
Geometry relaxation             ...        0.614 sec (=   0.010 min)   0.1 %
Numerical frequency calculation ...      797.501 sec (=  13.292 min)  81.9 %
                             ****ORCA TERMINATED NORMALLY****
TOTAL RUN TIME: 0 days 0 hours 16 minutes 8 seconds 499 msec
