
                                 *****************
                                 * O   R   C   A *
                                 *****************

                                            #,                                       
                                            ###                                      
                                            ####                                     
                                            #####                                    
                                            ######                                   
                                           ########,                                 
                                     ,,################,,,,,                         
                               ,,#################################,,                 
                          ,,##########################################,,             
                       ,#########################################, ''#####,          
                    ,#############################################,,   '####,        
                  ,##################################################,,,,####,       
                ,###########''''           ''''###############################       
              ,#####''   ,,,,##########,,,,          '''####'''          '####       
            ,##' ,,,,###########################,,,                        '##       
           ' ,,###''''                  '''############,,,                           
         ,,##''                                '''############,,,,        ,,,,,,###''
      ,#''                                            '''#######################'''  
     '                                                          ''''####''''         
             ,#######,   #######,   ,#######,      ##                                
            ,#'     '#,  ##    ##  ,#'     '#,    #''#        ######   ,####,        
            ##       ##  ##   ,#'  ##            #'  '#       #        #'  '#        
            ##       ##  #######   ##           ,######,      #####,   #    #        
            '#,     ,#'  ##    ##  '#,     ,#' ,#      #,         ##   #,  ,#        
             '#######'   ##     ##  '#######'  #'      '#     #####' # '####'        



                  #######################################################
                  #                        -***-                        #
                  #          Department of theory and spectroscopy      #
                  #    Directorship and core code : Frank Neese         #
                  #        Max Planck Institute fuer Kohlenforschung    #
                  #                Kaiser Wilhelm Platz 1               #
                  #                 D-45470 Muelheim/Ruhr               #
                  #                      Germany                        #
                  #                                                     #
                  #                  All rights reserved                #
                  #                        -***-                        #
                  #######################################################


                         Program Version 5.0.1 -  RELEASE  -


 With contributions from (in alphabetic order):
   Daniel Aravena         : Magnetic Suceptibility
   Michael Atanasov       : Ab Initio Ligand Field Theory (pilot matlab implementation)
   Alexander A. Auer      : GIAO ZORA, VPT2 properties, NMR spectrum
   Ute Becker             : Parallelization
   Giovanni Bistoni       : ED, misc. LED, open-shell LED, HFLD
   Martin Brehm           : Molecular dynamics
   Dmytro Bykov           : SCF Hessian
   Vijay G. Chilkuri      : MRCI spin determinant printing, contributions to CSF-ICE
   Dipayan Datta          : RHF DLPNO-CCSD density
   Achintya Kumar Dutta   : EOM-CC, STEOM-CC
   Dmitry Ganyushin       : Spin-Orbit,Spin-Spin,Magnetic field MRCI
   Miquel Garcia          : C-PCM and meta-GGA Hessian, CC/C-PCM, Gaussian charge scheme
   Yang Guo               : DLPNO-NEVPT2, F12-NEVPT2, CIM, IAO-localization
   Andreas Hansen         : Spin unrestricted coupled pair/coupled cluster methods
   Benjamin Helmich-Paris : MC-RPA, TRAH-SCF, COSX integrals
   Lee Huntington         : MR-EOM, pCC
   Robert Izsak           : Overlap fitted RIJCOSX, COSX-SCS-MP3, EOM
   Marcus Kettner         : VPT2
   Christian Kollmar      : KDIIS, OOCD, Brueckner-CCSD(T), CCSD density, CASPT2, CASPT2-K
   Simone Kossmann        : Meta GGA functionals, TD-DFT gradient, OOMP2, MP2 Hessian
   Martin Krupicka        : Initial AUTO-CI
   Lucas Lang             : DCDCAS
   Marvin Lechner         : AUTO-CI (C++ implementation), FIC-MRCC
   Dagmar Lenk            : GEPOL surface, SMD
   Dimitrios Liakos       : Extrapolation schemes; Compound Job, initial MDCI parallelization
   Dimitrios Manganas     : Further ROCIS development; embedding schemes
   Dimitrios Pantazis     : SARC Basis sets
   Anastasios Papadopoulos: AUTO-CI, single reference methods and gradients
   Taras Petrenko         : DFT Hessian,TD-DFT gradient, ASA, ECA, R-Raman, ABS, FL, XAS/XES, NRVS
   Peter Pinski           : DLPNO-MP2, DLPNO-MP2 Gradient
   Christoph Reimann      : Effective Core Potentials
   Marius Retegan         : Local ZFS, SOC
   Christoph Riplinger    : Optimizer, TS searches, QM/MM, DLPNO-CCSD(T), (RO)-DLPNO pert. Triples
   Tobias Risthaus        : Range-separated hybrids, TD-DFT gradient, RPA, STAB
   Michael Roemelt        : Original ROCIS implementation
   Masaaki Saitow         : Open-shell DLPNO-CCSD energy and density
   Barbara Sandhoefer     : DKH picture change effects
   Avijit Sen             : IP-ROCIS
   Kantharuban Sivalingam : CASSCF convergence, NEVPT2, FIC-MRCI
   Bernardo de Souza      : ESD, SOC TD-DFT
   Georgi Stoychev        : AutoAux, RI-MP2 NMR, DLPNO-MP2 response
   Willem Van den Heuvel  : Paramagnetic NMR
   Boris Wezisla          : Elementary symmetry handling
   Frank Wennmohs         : Technical directorship


 We gratefully acknowledge several colleagues who have allowed us to
 interface, adapt or use parts of their codes:
   Stefan Grimme, W. Hujo, H. Kruse, P. Pracht,  : VdW corrections, initial TS optimization,
                  C. Bannwarth, S. Ehlert          DFT functionals, gCP, sTDA/sTD-DF
   Ed Valeev, F. Pavosevic, A. Kumar             : LibInt (2-el integral package), F12 methods
   Garnet Chan, S. Sharma, J. Yang, R. Olivares  : DMRG
   Ulf Ekstrom                                   : XCFun DFT Library
   Mihaly Kallay                                 : mrcc  (arbitrary order and MRCC methods)
   Jiri Pittner, Ondrej Demel                    : Mk-CCSD
   Frank Weinhold                                : gennbo (NPA and NBO analysis)
   Christopher J. Cramer and Donald G. Truhlar   : smd solvation model
   Lars Goerigk                                  : TD-DFT with DH, B97 family of functionals
   V. Asgeirsson, H. Jonsson                     : NEB implementation
   FAccTs GmbH                                   : IRC, NEB, NEB-TS, DLPNO-Multilevel, CI-OPT
                                                   MM, QMMM, 2- and 3-layer-ONIOM, Crystal-QMMM,
                                                   LR-CPCM, SF, NACMEs, symmetry and pop. for TD-DFT,
                                                   nearIR, NL-DFT gradient (VV10), updates on ESD,
                                                   ML-optimized integration grids
   S Lehtola, MJT Oliveira, MAL Marques          : LibXC Library
   Liviu Ungur et al                             : ANISO software


 Your calculation uses the libint2 library for the computation of 2-el integrals
 For citations please refer to: http://libint.valeyev.net

 Your ORCA version has been built with support for libXC version: 5.1.0
 For citations please refer to: https://tddft.org/programs/libxc/

 This ORCA versions uses:
   CBLAS   interface :  Fast vector & matrix operations
   LAPACKE interface :  Fast linear algebra routines
   SCALAPACK package :  Parallel linear algebra routines
   Shared memory     :  Shared parallel matrices
   BLAS/LAPACK       :  OpenBLAS 0.3.15  USE64BITINT DYNAMIC_ARCH NO_AFFINITY Zen SINGLE_THREADED
        Core in use  :  Zen
   Copyright (c) 2011-2014, The OpenBLAS Project




***************************************
The coordinates will be read from file: input.xyz
***************************************


================================================================================

----- Orbital basis set information -----
Your calculation utilizes the basis: 6-31G(d)
   H-He, Li-Ne : W. J. Hehre, R. Ditchfield and J.A. Pople, J. Chem. Phys. 56, 2257 (1972).
                 Note: He and Ne are unpublished basis sets taken from the Gaussian program.
                 Note: Li and B from J. D. Dill and J. A. Pople, J. Chem. Phys. 62, 2921 (1975).
   Na - Ar     : M. M. Francl, W. J. Pietro, W. J. Hehre, J. S. Binkley, M. S. Gordon, 
                 D. J. DeFrees and J. A. Pople, J. Chem. Phys. 77, 3654 (1982).
   K - Zn      : V. A. Rassolov, J. A. Pople, M. A. Ratner, and T. L. Windus, J. Chem. Phys. 109, 1223 (1998).

================================================================================
                                        WARNINGS
                       Please study these warnings very carefully!
================================================================================


WARNING: Geometry Optimization
  ===> : Switching off AutoStart
         For restart on a previous wavefunction, please use MOREAD

WARNING: Post HF methods need fully converged wavefunctions
  ===> : Setting SCFConvForced true
         You can overwrite this default with %scf ConvForced false 


INFO   : the flag for use of the SHARK integral package has been found!

================================================================================
                                       INPUT FILE
================================================================================
NAME = input.orc
|  1> ! MP2 UHF 6-31G(d) OPTTS NumFreq NoFrozenCore VERYTIGHTSCF VERYTIGHTOPT
|  2> 
|  3> * XYZfile 0 2 input.xyz
|  4> 
|  5>                          ****END OF INPUT****
================================================================================

                       *****************************
                       * Geometry Optimization Run *
                       *****************************

Geometry optimization settings:
Update method            Update   .... Bofill
Choice of coordinates    CoordSys .... Z-matrix Internals
Initial Hessian          InHess   .... Almoef's Model

Convergence Tolerances:
Energy Change            TolE     ....  2.0000e-07 Eh
Max. Gradient            TolMAXG  ....  3.0000e-05 Eh/bohr
RMS Gradient             TolRMSG  ....  8.0000e-06 Eh/bohr
Max. Displacement        TolMAXD  ....  2.0000e-04 bohr
RMS Displacement         TolRMSD  ....  1.0000e-04 bohr
Strict Convergence                ....  False
------------------------------------------------------------------------------
                        ORCA OPTIMIZATION COORDINATE SETUP
------------------------------------------------------------------------------

The optimization will be done in new redundant internal coordinates
Making redundant internal coordinates   ...  (new redundants) done
Following TS mode number                ...     0
Evaluating the initial hessian          ...  (Almloef) done
Evaluating the coordinates              ...  done
Calculating the B-matrix                .... done
Calculating the G-matrix                .... done
Diagonalizing the G-matrix              .... done
The first mode is                       ....   10
The number of degrees of freedom        ....   18

    -----------------------------------------------------------------
                    Redundant Internal Coordinates


    -----------------------------------------------------------------
         Definition                    Initial Value    Approx d2E/dq
    -----------------------------------------------------------------
      1. B(H   1,C   0)                  1.0911         0.358638   
      2. B(C   2,C   0)                  1.5240         0.381900   
      3. B(F   3,C   2)                  1.3670         0.565798   
      4. B(O   4,C   2)                  1.2040         1.108222   
      5. B(H   5,C   0)                  1.0919         0.357592   
      6. B(F   6,C   0)                  1.3800         0.539413   
      7. B(H   7,C   2)                  1.5050         0.078400   
      8. A(H   1,C   0,H   5)          110.6552         0.290335   
      9. A(C   2,C   0,F   6)          107.9795         0.384505   
     10. A(H   1,C   0,C   2)          110.0535         0.325278   
     11. A(C   2,C   0,H   5)          109.4622         0.325122   
     12. A(H   5,C   0,F   6)          109.1631         0.340802   
     13. A(H   1,C   0,F   6)          109.4773         0.340969   
     14. A(O   4,C   2,H   7)          107.3976         0.300396   
     15. A(C   0,C   2,O   4)          109.8912         0.438762   
     16. A(F   3,C   2,H   7)           93.7748         0.269544   
     17. A(C   0,C   2,H   7)          110.2260         0.256480   
     18. A(F   3,C   2,O   4)          121.8392         0.466043   
     19. A(C   0,C   2,F   3)          112.1011         0.387716   
     20. D(F   3,C   2,C   0,H   5)    -57.4325         0.011618   
     21. D(F   3,C   2,C   0,F   6)     61.2989         0.011618   
     22. D(O   4,C   2,C   0,H   1)    -40.4518         0.011618   
     23. D(O   4,C   2,C   0,H   5)     81.3686         0.011618   
     24. D(O   4,C   2,C   0,F   6)   -159.9000         0.011618   
     25. D(H   7,C   2,C   0,H   1)     77.7240         0.011618   
     26. D(H   7,C   2,C   0,H   5)   -160.4556         0.011618   
     27. D(H   7,C   2,C   0,F   6)    -41.7242         0.011618   
     28. D(F   3,C   2,C   0,H   1)   -179.2529         0.011618   
    -----------------------------------------------------------------

Number of atoms                         .... 8
Number of degrees of freedom            .... 28

         *************************************************************
         *                GEOMETRY OPTIMIZATION CYCLE   1            *
         *************************************************************
---------------------------------
CARTESIAN COORDINATES (ANGSTROEM)
---------------------------------
  C      0.732000   -0.109856   -0.058842
  H      0.241590    0.115099    0.889529
  C      0.248788    0.851641   -1.138011
  F      0.826037    0.596072   -2.350511
  O     -0.935995    1.033200   -1.024245
  H      0.523279   -1.136557   -0.366369
  F      2.095419    0.053748    0.077993
  H      0.925391    2.187321   -0.985717

----------------------------
CARTESIAN COORDINATES (A.U.)
----------------------------
  NO LB      ZA    FRAG     MASS         X           Y           Z
   0 C     6.0000    0    12.011    1.383280   -0.207598   -0.111196
   1 H     1.0000    0     1.008    0.456539    0.217505    1.680966
   2 C     6.0000    0    12.011    0.470141    1.609368   -2.150529
   3 F     9.0000    0    18.998    1.560985    1.126413   -4.441822
   4 O     8.0000    0    15.999   -1.768774    1.952465   -1.935543
   5 H     1.0000    0     1.008    0.988854   -2.147781   -0.692338
   6 F     9.0000    0    18.998    3.959767    0.101569    0.147385
   7 H     1.0000    0     1.008    1.748735    4.133437   -1.862735

--------------------------------
INTERNAL COORDINATES (ANGSTROEM)
--------------------------------
 C      0   0   0     0.000000000000     0.00000000     0.00000000
 H      1   0   0     1.091107421330     0.00000000     0.00000000
 C      1   2   0     1.523999999986   110.05353405     0.00000000
 F      3   1   2     1.366999999193   112.10112833   180.74711439
 O      3   1   2     1.204000000675   109.89123667   319.54822216
 H      1   2   3     1.091902511062   110.65519853   238.89144413
 F      1   2   3     1.379999999580   109.47728044   118.53171740
 H      3   1   2     1.504999999947   110.22596063    77.72400578

---------------------------
INTERNAL COORDINATES (A.U.)
---------------------------
 C      0   0   0     0.000000000000     0.00000000     0.00000000
 H      1   0   0     2.061894209003     0.00000000     0.00000000
 C      1   2   0     2.879942628069   110.05353405     0.00000000
 F      3   1   2     2.583255623545   112.10112833   180.74711439
 O      3   1   2     2.275230266516   109.89123667   319.54822216
 H      1   2   3     2.063396710849   110.65519853   238.89144413
 F      1   2   3     2.607822064018   109.47728044   118.53171740
 H      3   1   2     2.844037831451   110.22596063    77.72400578

---------------------
BASIS SET INFORMATION
---------------------
There are 4 groups of distinct atoms

 Group   1 Type C   : 10s4p1d contracted to 3s2p1d pattern {631/31/1}
 Group   2 Type H   : 4s contracted to 2s pattern {31}
 Group   3 Type F   : 10s4p1d contracted to 3s2p1d pattern {631/31/1}
 Group   4 Type O   : 10s4p1d contracted to 3s2p1d pattern {631/31/1}

Atom   0C    basis set group =>   1
Atom   1H    basis set group =>   2
Atom   2C    basis set group =>   1
Atom   3F    basis set group =>   3
Atom   4O    basis set group =>   4
Atom   5H    basis set group =>   2
Atom   6F    basis set group =>   3
Atom   7H    basis set group =>   2
------------------------------------------------------------------------------
                           ORCA GTO INTEGRAL CALCULATION
------------------------------------------------------------------------------
------------------------------------------------------------------------------
                   ___                                                        
                  /   \      - P O W E R E D   B Y -                         
                 /     \                                                     
                 |  |  |   _    _      __       _____    __    __             
                 |  |  |  | |  | |    /  \     |  _  \  |  |  /  |          
                  \  \/   | |  | |   /    \    | | | |  |  | /  /          
                 / \  \   | |__| |  /  /\  \   | |_| |  |  |/  /          
                |  |  |   |  __  | /  /__\  \  |    /   |      \           
                |  |  |   | |  | | |   __   |  |    \   |  |\   \          
                \     /   | |  | | |  |  |  |  | |\  \  |  | \   \       
                 \___/    |_|  |_| |__|  |__|  |_| \__\ |__|  \__/        
                                                                              
                      - O R C A' S   B I G   F R I E N D -                    
                                      &                                       
                       - I N T E G R A L  F E E D E R -                       
                                                                              
 v1 FN, 2020, v2 2021                                                         
------------------------------------------------------------------------------


Reading SHARK input file input.SHARKINP.tmp ... ok
----------------------
SHARK INTEGRAL PACKAGE
----------------------

Number of atoms                             ...      8
Number of basis functions                   ...     76
Number of shells                            ...     36
Maximum angular momentum                    ...      2
Integral batch strategy                     ... SHARK/LIBINT Hybrid
RI-J (if used) integral strategy            ... SPLIT-RIJ (Revised 2003 algorithm where possible)
Printlevel                                  ...      1
Contraction scheme used                     ... SEGMENTED contraction
Coulomb Range Separation                    ... NOT USED
Exchange Range Separation                   ... NOT USED
Finite Nucleus Model                        ... NOT USED
Auxiliary Coulomb fitting basis             ... NOT available
Auxiliary J/K fitting basis                 ... NOT available
Auxiliary Correlation fitting basis         ... NOT available
Auxiliary 'external' fitting basis          ... NOT available
Integral threshold                          ...     1.000000e-12
Primitive cut-off                           ...     1.000000e-14
Primitive pair pre-selection threshold      ...     1.000000e-14

Calculating pre-screening integrals         ... done (  0.1 sec) Dimension = 36
Organizing shell pair data                  ... done (  0.1 sec)
Shell pair information
Total number of shell pairs                 ...       666
Shell pairs after pre-screening             ...       654
Total number of primitive shell pairs       ...      3942
Primitive shell pairs kept                  ...      2889
          la=0 lb=0:    221 shell pairs
          la=1 lb=0:    208 shell pairs
          la=1 lb=1:     55 shell pairs
          la=2 lb=0:    105 shell pairs
          la=2 lb=1:     50 shell pairs
          la=2 lb=2:     15 shell pairs

Calculating one electron integrals          ... done (  0.0 sec)
Calculating Nuclear repulsion               ... done (  0.0 sec) ENN=    184.234810362532 Eh

SHARK setup successfully completed in   0.4 seconds

Maximum memory used throughout the entire GTOINT-calculation: 7.5 MB
-------------------------------------------------------------------------------
                                 ORCA SCF
-------------------------------------------------------------------------------

------------
SCF SETTINGS
------------
Hamiltonian:
 Ab initio Hamiltonian  Method          .... Hartree-Fock(GTOs)


General Settings:
 Integral files         IntName         .... input
 Hartree-Fock type      HFTyp           .... UHF
 Total Charge           Charge          ....    0
 Multiplicity           Mult            ....    2
 Number of Electrons    NEL             ....   41
 Basis Dimension        Dim             ....   76
 Nuclear Repulsion      ENuc            ....    184.2348103625 Eh

Convergence Acceleration:
 DIIS                   CNVDIIS         .... on
   Start iteration      DIISMaxIt       ....    12
   Startup error        DIISStart       ....  0.200000
   # of expansion vecs  DIISMaxEq       ....     5
   Bias factor          DIISBfac        ....   1.050
   Max. coefficient     DIISMaxC        ....  10.000
 Trust-Rad. Augm. Hess. CNVTRAH         .... auto
   Auto Start mean grad. ratio tolernc. ....  1.125000
   Auto Start start iteration           ....    20
   Auto Start num. interpolation iter.  ....    10
   Max. Number of Micro iterations      ....    16
   Max. Number of Macro iterations      .... Maxiter - #DIIS iter
   Number of Davidson start vectors     ....     2
   Converg. threshold I  (grad. norm)   ....   2.000e-06
   Converg. threshold II (energy diff.) ....   1.000e-09
   Grad. Scal. Fac. for Micro threshold ....   0.100
   Minimum threshold for Micro iter.    ....   0.010
   NR start threshold (gradient norm)   ....   0.001
   Initial trust radius                 ....   0.400
   Minimum AH scaling param. (alpha)    ....   1.000
   Maximum AH scaling param. (alpha)    .... 1000.000
   Orbital update algorithm             .... Taylor
   White noise on init. David. guess    .... on
   Maximum white noise                  ....   0.010
   Quad. conv. algorithm                .... NR
 SOSCF                  CNVSOSCF        .... off
 Level Shifting         CNVShift        .... on
   Level shift para.    LevelShift      ....    0.2500
   Turn off err/grad.   ShiftErr        ....    0.0010
 Zerner damping         CNVZerner       .... off
 Static damping         CNVDamp         .... on
   Fraction old density DampFac         ....    0.7000
   Max. Damping (<1)    DampMax         ....    0.9800
   Min. Damping (>=0)   DampMin         ....    0.0000
   Turn off err/grad.   DampErr         ....    0.1000
 Fernandez-Rico         CNVRico         .... off

SCF Procedure:
 Maximum # iterations   MaxIter         ....   125
 SCF integral mode      SCFMode         .... Direct
   Integral package                     .... SHARK and LIBINT hybrid scheme
 Reset frequency        DirectResetFreq ....    20
 Integral Threshold     Thresh          ....  1.000e-12 Eh
 Primitive CutOff       TCut            ....  1.000e-14 Eh

Convergence Tolerance:
 Convergence Check Mode ConvCheckMode   .... Total+1el-Energy
 Convergence forced     ConvForced      .... 1
 Energy Change          TolE            ....  1.000e-09 Eh
 1-El. energy change                    ....  1.000e-06 Eh
 DIIS Error             TolErr          ....  1.000e-08


Diagonalization of the overlap matrix:
Smallest eigenvalue                        ... 5.504e-03
Time for diagonalization                   ...    0.026 sec
Threshold for overlap eigenvalues          ... 1.000e-08
Number of eigenvalues below threshold      ... 0
Time for construction of square roots      ...    0.053 sec
Total time needed                          ...    0.079 sec

Time for model grid setup =    0.116 sec

------------------------------
INITIAL GUESS: MODEL POTENTIAL
------------------------------
Loading Hartree-Fock densities                     ... done
Calculating cut-offs                               ... done
Initializing the effective Hamiltonian             ... done
Setting up the integral package (SHARK)            ... done
Starting the Coulomb interaction                   ... done (   0.1 sec)
Reading the grid                                   ... done
Mapping shells                                     ... done
Starting the XC term evaluation                    ... done (   0.0 sec)
Transforming the Hamiltonian                       ... done (   0.0 sec)
Diagonalizing the Hamiltonian                      ... done (   0.0 sec)
Back transforming the eigenvectors                 ... done (   0.0 sec)
Now organizing SCF variables                       ... done
                      ------------------
                      INITIAL GUESS DONE (   0.2 sec)
                      ------------------
--------------
SCF ITERATIONS
--------------
ITER       Energy         Delta-E        Max-DP      RMS-DP      [F,P]     Damp
               ***  Starting incremental Fock matrix formation  ***
  0   -350.9076289059   0.000000000000 0.04189448  0.00131950  0.2487985 0.7000
  1   -350.9648465822  -0.057217676363 0.03353940  0.00099477  0.1455055 0.7000
                               ***Turning on DIIS***
  2   -350.9993300540  -0.034483471825 0.07744504  0.00220931  0.0770781 0.0000
  3   -350.8032970712   0.196032982872 0.02473531  0.00083605  0.0728043 0.0000
  4   -351.1164610800  -0.313164008854 0.02034620  0.00057137  0.0183210 0.0000
  5   -351.0805982465   0.035862833491 0.01484984  0.00046695  0.0103979 0.0000
  6   -351.0996937719  -0.019095525416 0.01682142  0.00053185  0.0098825 0.0000
  7   -351.1167039336  -0.017010161608 0.01703762  0.00053371  0.0080006 0.0000
  8   -351.0991671052   0.017536828394 0.01029875  0.00033851  0.0059777 0.0000
  9   -351.1094250563  -0.010257951166 0.00832932  0.00029597  0.0037559 0.0000
 10   -351.1035299304   0.005895125965 0.00172542  0.00007127  0.0020930 0.0000
 11   -351.0997711818   0.003758748593 0.00110521  0.00005486  0.0011309 0.0000
 12   -351.0993186019   0.000452579851 0.00241978  0.00006450  0.0006425 0.0000
 13   -351.0987000950   0.000618506868 0.00157070  0.00004217  0.0004187 0.0000
 14   -351.0983569905   0.000343104572 0.00111554  0.00003227  0.0004091 0.0000
 15   -351.0985324719  -0.000175481377 0.00071912  0.00001908  0.0003692 0.0000
 16   -351.0985830961  -0.000050624197 0.00076398  0.00001547  0.0003137 0.0000
 17   -351.0988622219  -0.000279125807 0.00101918  0.00002098  0.0002383 0.0000
 18   -351.0989840302  -0.000121808367 0.00086700  0.00001874  0.0001326 0.0000
 19   -351.0988134062   0.000170623985 0.00028125  0.00000606  0.0000394 0.0000
               *** Restarting incremental Fock matrix formation ***
                                   *** Resetting DIIS ***
 20   -351.0986976060   0.000115800203 0.00002313  0.00000081  0.0000117 0.0000
 21   -351.0986981897  -0.000000583656 0.00001636  0.00000057  0.0000100 0.0000
 22   -351.0986988948  -0.000000705137 0.00002603  0.00000087  0.0000095 0.0000
 23   -351.0986944216   0.000004473232 0.00001298  0.00000037  0.0000084 0.0000
 24   -351.0986952198  -0.000000798179 0.00001930  0.00000043  0.0000072 0.0000
 25   -351.0986980298  -0.000002810046 0.00001938  0.00000039  0.0000052 0.0000
 26   -351.0986996460  -0.000001616215 0.00001485  0.00000030  0.0000032 0.0000
 27   -351.0987020447  -0.000002398619 0.00001041  0.00000024  0.0000016 0.0000
 28   -351.0987001644   0.000001880212 0.00000499  0.00000012  0.0000007 0.0000
 29   -351.0986982059   0.000001958556 0.00000103  0.00000003  0.0000003 0.0000
 30   -351.0986977963   0.000000409562 0.00000044  0.00000002  0.0000001 0.0000
 31   -351.0986975806   0.000000215688 0.00000020  0.00000001  0.0000001 0.0000
 32   -351.0986976392  -0.000000058557 0.00000013  0.00000000  0.0000001 0.0000
 33   -351.0986975592   0.000000079981 0.00000013  0.00000000  0.0000001 0.0000
 34   -351.0986976195  -0.000000060312 0.00000006  0.00000000  0.0000000 0.0000
 35   -351.0986976290  -0.000000009513 0.00000007  0.00000000  0.0000000 0.0000
 36   -351.0986976408  -0.000000011735 0.00000009  0.00000000  0.0000000 0.0000
 37   -351.0986976612  -0.000000020470 0.00000013  0.00000000  0.0000000 0.0000
                            ***DIIS convergence achieved***

               *****************************************************
               *                     SUCCESS                       *
               *           SCF CONVERGED AFTER  38 CYCLES          *
               *****************************************************


----------------
TOTAL SCF ENERGY
----------------

Total Energy       :         -351.09869765 Eh           -9553.88127 eV

Components:
Nuclear Repulsion  :          184.23481036 Eh            5013.28406 eV
Electronic Energy  :         -535.33350801 Eh          -14567.16533 eV
One Electron Energy:         -851.90072521 Eh          -23181.39725 eV
Two Electron Energy:          316.56721720 Eh            8614.23192 eV

Virial components:
Potential Energy   :         -702.09727502 Eh          -19105.03813 eV
Kinetic Energy     :          350.99857737 Eh            9551.15686 eV
Virial Ratio       :            2.00028524


---------------
SCF CONVERGENCE
---------------

  Last Energy change         ...    9.9839e-09  Tolerance :   1.0000e-09
  Last MAX-Density change    ...    8.5117e-08  Tolerance :   1.0000e-08
  Last RMS-Density change    ...    1.7354e-09  Tolerance :   1.0000e-09
  Last DIIS Error            ...    1.0634e-08  Tolerance :   1.0000e-08

             **** THE GBW FILE WAS UPDATED (input.gbw) ****
             **** DENSITY input.scfp WAS UPDATED ****
             **** ENERGY FILE WAS UPDATED (input.en.tmp) ****
----------------------
UHF SPIN CONTAMINATION
----------------------

Expectation value of <S**2>     :     0.877583
Ideal value S*(S+1) for S=0.5   :     0.750000
Deviation                       :     0.127583

             **** THE GBW FILE WAS UPDATED (input.gbw) ****
             **** DENSITY input.scfp WAS UPDATED ****
----------------
ORBITAL ENERGIES
----------------
                 SPIN UP ORBITALS
  NO   OCC          E(Eh)            E(eV) 
   0   1.0000     -26.307114      -715.8530 
   1   1.0000     -26.292755      -715.4622 
   2   1.0000     -20.660296      -562.1952 
   3   1.0000     -11.411548      -310.5240 
   4   1.0000     -11.345493      -308.7266 
   5   1.0000      -1.633770       -44.4571 
   6   1.0000      -1.603212       -43.6256 
   7   1.0000      -1.507498       -41.0211 
   8   1.0000      -1.030463       -28.0403 
   9   1.0000      -0.862263       -23.4634 
  10   1.0000      -0.770165       -20.9573 
  11   1.0000      -0.763416       -20.7736 
  12   1.0000      -0.755859       -20.5680 
  13   1.0000      -0.710539       -19.3348 
  14   1.0000      -0.695184       -18.9169 
  15   1.0000      -0.655806       -17.8454 
  16   1.0000      -0.644171       -17.5288 
  17   1.0000      -0.604039       -16.4367 
  18   1.0000      -0.552745       -15.0409 
  19   1.0000      -0.524662       -14.2768 
  20   1.0000      -0.478839       -13.0299 
  21   0.0000       0.173949         4.7334 
  22   0.0000       0.247744         6.7415 
  23   0.0000       0.285955         7.7812 
  24   0.0000       0.310161         8.4399 
  25   0.0000       0.400397        10.8953 
  26   0.0000       0.425651        11.5825 
  27   0.0000       0.493697        13.4342 
  28   0.0000       0.714327        19.4378 
  29   0.0000       0.741995        20.1907 
  30   0.0000       0.769441        20.9376 
  31   0.0000       0.822542        22.3825 
  32   0.0000       0.844110        22.9694 
  33   0.0000       0.885328        24.0910 
  34   0.0000       0.940207        25.5843 
  35   0.0000       1.031562        28.0702 
  36   0.0000       1.068637        29.0791 
  37   0.0000       1.089534        29.6477 
  38   0.0000       1.140134        31.0246 
  39   0.0000       1.182128        32.1673 
  40   0.0000       1.259963        34.2853 
  41   0.0000       1.370038        37.2806 
  42   0.0000       1.493568        40.6420 
  43   0.0000       1.532150        41.6919 
  44   0.0000       1.544318        42.0230 
  45   0.0000       1.560542        42.4645 
  46   0.0000       1.637397        44.5558 
  47   0.0000       1.681891        45.7666 
  48   0.0000       1.702518        46.3279 
  49   0.0000       1.719936        46.8018 
  50   0.0000       1.856279        50.5119 
  51   0.0000       1.899748        51.6948 
  52   0.0000       1.947670        52.9988 
  53   0.0000       1.975615        53.7592 
  54   0.0000       2.035404        55.3862 
  55   0.0000       2.089372        56.8547 
  56   0.0000       2.101533        57.1856 
  57   0.0000       2.116678        57.5977 
  58   0.0000       2.166003        58.9399 
  59   0.0000       2.207849        60.0786 
  60   0.0000       2.210601        60.1535 
  61   0.0000       2.358629        64.1816 
  62   0.0000       2.371773        64.5392 
  63   0.0000       2.407002        65.4979 
  64   0.0000       2.450052        66.6693 
  65   0.0000       2.511281        68.3354 
  66   0.0000       2.554014        69.4983 
  67   0.0000       2.710950        73.7687 
  68   0.0000       2.780298        75.6557 
  69   0.0000       2.840052        77.2817 
  70   0.0000       2.961144        80.5768 
  71   0.0000       3.056083        83.1602 
  72   0.0000       3.191003        86.8316 
  73   0.0000       3.308408        90.0263 
  74   0.0000       3.402190        92.5783 
  75   0.0000       3.483373        94.7874 

                 SPIN DOWN ORBITALS
  NO   OCC          E(Eh)            E(eV) 
   0   1.0000     -26.307917      -715.8748 
   1   1.0000     -26.292908      -715.4664 
   2   1.0000     -20.627881      -561.3132 
   3   1.0000     -11.424512      -310.8768 
   4   1.0000     -11.341761      -308.6250 
   5   1.0000      -1.634123       -44.4668 
   6   1.0000      -1.603478       -43.6329 
   7   1.0000      -1.427558       -38.8458 
   8   1.0000      -1.016500       -27.6604 
   9   1.0000      -0.855404       -23.2767 
  10   1.0000      -0.759531       -20.6679 
  11   1.0000      -0.742598       -20.2071 
  12   1.0000      -0.734929       -19.9984 
  13   1.0000      -0.696922       -18.9642 
  14   1.0000      -0.692656       -18.8481 
  15   1.0000      -0.646820       -17.6009 
  16   1.0000      -0.592662       -16.1271 
  17   1.0000      -0.554541       -15.0898 
  18   1.0000      -0.513913       -13.9843 
  19   1.0000      -0.489840       -13.3292 
  20   0.0000       0.030286         0.8241 
  21   0.0000       0.209006         5.6873 
  22   0.0000       0.248056         6.7499 
  23   0.0000       0.287968         7.8360 
  24   0.0000       0.307292         8.3618 
  25   0.0000       0.402298        10.9471 
  26   0.0000       0.435429        11.8486 
  27   0.0000       0.502036        13.6611 
  28   0.0000       0.711943        19.3729 
  29   0.0000       0.752023        20.4636 
  30   0.0000       0.776731        21.1359 
  31   0.0000       0.829940        22.5838 
  32   0.0000       0.858695        23.3663 
  33   0.0000       0.900826        24.5127 
  34   0.0000       0.968736        26.3606 
  35   0.0000       1.049313        28.5533 
  36   0.0000       1.080363        29.3982 
  37   0.0000       1.102153        29.9911 
  38   0.0000       1.146666        31.2024 
  39   0.0000       1.262989        34.3677 
  40   0.0000       1.283417        34.9236 
  41   0.0000       1.398540        38.0562 
  42   0.0000       1.494305        40.6621 
  43   0.0000       1.534061        41.7439 
  44   0.0000       1.546779        42.0900 
  45   0.0000       1.566307        42.6214 
  46   0.0000       1.641532        44.6684 
  47   0.0000       1.681938        45.7679 
  48   0.0000       1.703930        46.3663 
  49   0.0000       1.724494        46.9259 
  50   0.0000       1.872941        50.9653 
  51   0.0000       1.912288        52.0360 
  52   0.0000       1.956367        53.2354 
  53   0.0000       2.009359        54.6774 
  54   0.0000       2.041807        55.5604 
  55   0.0000       2.089918        56.8696 
  56   0.0000       2.114896        57.5492 
  57   0.0000       2.142718        58.3063 
  58   0.0000       2.171659        59.0938 
  59   0.0000       2.218080        60.3570 
  60   0.0000       2.222973        60.4902 
  61   0.0000       2.357904        64.1618 
  62   0.0000       2.377561        64.6967 
  63   0.0000       2.409463        65.5648 
  64   0.0000       2.460391        66.9507 
  65   0.0000       2.520617        68.5895 
  66   0.0000       2.555236        69.5315 
  67   0.0000       2.712512        73.8112 
  68   0.0000       2.782542        75.7168 
  69   0.0000       2.836446        77.1836 
  70   0.0000       2.966514        80.7229 
  71   0.0000       3.063333        83.3575 
  72   0.0000       3.196261        86.9747 
  73   0.0000       3.314933        90.2039 
  74   0.0000       3.403702        92.6194 
  75   0.0000       3.481372        94.7329 

                    ********************************
                    * MULLIKEN POPULATION ANALYSIS *
                    ********************************

--------------------------------------------
MULLIKEN ATOMIC CHARGES AND SPIN POPULATIONS
--------------------------------------------
   0 C :    0.116052    0.095919
   1 H :    0.197486   -0.005563
   2 C :    0.544319   -0.465482
   3 F :   -0.430768   -0.002897
   4 O :   -0.309594    0.775259
   5 H :    0.199357   -0.010762
   6 F :   -0.444163   -0.002430
   7 H :    0.127311    0.615956
Sum of atomic charges         :    0.0000000
Sum of atomic spin populations:    1.0000000

-----------------------------------------------------
MULLIKEN REDUCED ORBITAL CHARGES AND SPIN POPULATIONS
-----------------------------------------------------
CHARGE
  0 C s       :     3.191101  s :     3.191101
      pz      :     1.011623  p :     2.611235
      px      :     0.575690
      py      :     1.023922
      dz2     :     0.012828  d :     0.081612
      dxz     :     0.019524
      dyz     :     0.011351
      dx2y2   :     0.024610
      dxy     :     0.013299
  1 H s       :     0.802514  s :     0.802514
  2 C s       :     3.067842  s :     3.067842
      pz      :     0.632946  p :     2.250051
      px      :     0.715257
      py      :     0.901848
      dz2     :     0.029250  d :     0.137788
      dxz     :     0.044995
      dyz     :     0.018758
      dx2y2   :     0.026515
      dxy     :     0.018270
  3 F s       :     3.982343  s :     3.982343
      pz      :     1.634485  p :     5.431337
      px      :     1.871419
      py      :     1.925432
      dz2     :     0.006337  d :     0.017088
      dxz     :     0.006026
      dyz     :     0.003176
      dx2y2   :     0.000812
      dxy     :     0.000737
  4 O s       :     3.884088  s :     3.884088
      pz      :     1.848658  p :     4.393870
      px      :     1.378781
      py      :     1.166431
      dz2     :     0.003266  d :     0.031636
      dxz     :     0.007715
      dyz     :     0.000371
      dx2y2   :     0.009210
      dxy     :     0.011074
  5 H s       :     0.800643  s :     0.800643
  6 F s       :     3.979250  s :     3.979250
      pz      :     1.953033  p :     5.447762
      px      :     1.546879
      py      :     1.947850
      dz2     :     0.002656  d :     0.017152
      dxz     :     0.003338
      dyz     :     0.000108
      dx2y2   :     0.007733
      dxy     :     0.003317
  7 H s       :     0.872689  s :     0.872689

SPIN
  0 C s       :     0.020736  s :     0.020736
      pz      :     0.041184  p :     0.076535
      px      :     0.001717
      py      :     0.033634
      dz2     :    -0.000087  d :    -0.001351
      dxz     :    -0.000359
      dyz     :     0.000252
      dx2y2   :    -0.001321
      dxy     :     0.000164
  1 H s       :    -0.005563  s :    -0.005563
  2 C s       :    -0.105869  s :    -0.105869
      pz      :    -0.031778  p :    -0.372785
      px      :    -0.064086
      py      :    -0.276921
      dz2     :     0.000826  d :     0.013171
      dxz     :    -0.001883
      dyz     :     0.001070
      dx2y2   :     0.001060
      dxy     :     0.012098
  3 F s       :    -0.000202  s :    -0.000202
      pz      :     0.002519  p :    -0.002724
      px      :    -0.000121
      py      :    -0.005122
      dz2     :     0.000105  d :     0.000028
      dxz     :    -0.000101
      dyz     :     0.000047
      dx2y2   :    -0.000072
      dxy     :     0.000049
  4 O s       :     0.030153  s :     0.030153
      pz      :     0.017088  p :     0.748908
      px      :     0.043360
      py      :     0.688460
      dz2     :    -0.000133  d :    -0.003802
      dxz     :    -0.000122
      dyz     :     0.000005
      dx2y2   :     0.000126
      dxy     :    -0.003678
  5 H s       :    -0.010762  s :    -0.010762
  6 F s       :     0.000073  s :     0.000073
      pz      :     0.001245  p :    -0.002573
      px      :    -0.003860
      py      :     0.000042
      dz2     :     0.000020  d :     0.000071
      dxz     :    -0.000007
      dyz     :    -0.000010
      dx2y2   :     0.000019
      dxy     :     0.000049
  7 H s       :     0.615956  s :     0.615956


                     *******************************
                     * LOEWDIN POPULATION ANALYSIS *
                     *******************************

-------------------------------------------
LOEWDIN ATOMIC CHARGES AND SPIN POPULATIONS
-------------------------------------------
   0 C :   -0.008121    0.066602
   1 H :    0.140425   -0.003890
   2 C :    0.104739   -0.275821
   3 F :   -0.200348   -0.009371
   4 O :   -0.067399    0.704383
   5 H :    0.142077   -0.009318
   6 F :   -0.226090   -0.001552
   7 H :    0.114717    0.528968

----------------------------------------------------
LOEWDIN REDUCED ORBITAL CHARGES AND SPIN POPULATIONS
----------------------------------------------------
CHARGE
  0 C s       :     2.952281  s :     2.952281
      pz      :     1.073615  p :     2.888291
      px      :     0.723179
      py      :     1.091498
      dz2     :     0.025272  d :     0.167549
      dxz     :     0.040067
      dyz     :     0.019919
      dx2y2   :     0.053000
      dxy     :     0.029291
  1 H s       :     0.859575  s :     0.859575
  2 C s       :     2.878978  s :     2.878978
      pz      :     0.806287  p :     2.699608
      px      :     0.948246
      py      :     0.945075
      dz2     :     0.064773  d :     0.316675
      dxz     :     0.108784
      dyz     :     0.041194
      dx2y2   :     0.061610
      dxy     :     0.040314
  3 F s       :     3.752954  s :     3.752954
      pz      :     1.638614  p :     5.415262
      px      :     1.858097
      py      :     1.918552
      dz2     :     0.012466  d :     0.032132
      dxz     :     0.009314
      dyz     :     0.006975
      dx2y2   :     0.001871
      dxy     :     0.001506
  4 O s       :     3.567034  s :     3.567034
      pz      :     1.795279  p :     4.439849
      px      :     1.487197
      py      :     1.157372
      dz2     :     0.007633  d :     0.060517
      dxz     :     0.012318
      dyz     :     0.000628
      dx2y2   :     0.020774
      dxy     :     0.019163
  5 H s       :     0.857923  s :     0.857923
  6 F s       :     3.756881  s :     3.756881
      pz      :     1.942187  p :     5.437311
      px      :     1.554287
      py      :     1.940836
      dz2     :     0.004035  d :     0.031899
      dxz     :     0.007810
      dyz     :     0.000293
      dx2y2   :     0.012036
      dxy     :     0.007725
  7 H s       :     0.885283  s :     0.885283

SPIN
  0 C s       :     0.014617  s :     0.014617
      pz      :     0.028429  p :     0.056912
      px      :     0.003885
      py      :     0.024599
      dz2     :    -0.000277  d :    -0.004927
      dxz     :    -0.000937
      dyz     :    -0.000688
      dx2y2   :    -0.003156
      dxy     :     0.000131
  1 H s       :    -0.003890  s :    -0.003890
  2 C s       :    -0.047614  s :    -0.047614
      pz      :    -0.021695  p :    -0.261958
      px      :    -0.054466
      py      :    -0.185797
      dz2     :     0.002827  d :     0.033750
      dxz     :    -0.003317
      dyz     :     0.002275
      dx2y2   :     0.003022
      dxy     :     0.028943
  3 F s       :    -0.000894  s :    -0.000894
      pz      :     0.000536  p :    -0.005746
      px      :    -0.001148
      py      :    -0.005134
      dz2     :    -0.000448  d :    -0.002731
      dxz     :    -0.000429
      dyz     :    -0.001261
      dx2y2   :    -0.000241
      dxy     :    -0.000353
  4 O s       :     0.015160  s :     0.015160
      pz      :     0.014886  p :     0.698572
      px      :     0.028547
      py      :     0.655139
      dz2     :    -0.000704  d :    -0.009350
      dxz     :    -0.000554
      dyz     :    -0.000022
      dx2y2   :    -0.001024
      dxy     :    -0.007046
  5 H s       :    -0.009318  s :    -0.009318
  6 F s       :    -0.000412  s :    -0.000412
      pz      :     0.001304  p :    -0.001856
      px      :    -0.003465
      py      :     0.000304
      dz2     :     0.000021  d :     0.000716
      dxz     :     0.000265
      dyz     :    -0.000001
      dx2y2   :     0.000241
      dxy     :     0.000190
  7 H s       :     0.528968  s :     0.528968


                      *****************************
                      * MAYER POPULATION ANALYSIS *
                      *****************************

  NA   - Mulliken gross atomic population
  ZA   - Total nuclear charge
  QA   - Mulliken gross atomic charge
  VA   - Mayer's total valence
  BVA  - Mayer's bonded valence
  FA   - Mayer's free valence

  ATOM       NA         ZA         QA         VA         BVA        FA
  0 C      5.8839     6.0000     0.1161     3.5789     3.5708     0.0081
  1 H      0.8025     1.0000     0.1975     0.9208     0.9208     0.0000
  2 C      5.4557     6.0000     0.5443     3.7409     3.6020     0.1389
  3 F      9.4308     9.0000    -0.4308     0.8195     0.8193     0.0002
  4 O      8.3096     8.0000    -0.3096     1.9796     1.4486     0.5310
  5 H      0.8006     1.0000     0.1994     0.9180     0.9178     0.0001
  6 F      9.4442     9.0000    -0.4442     0.8036     0.8036     0.0000
  7 H      0.8727     1.0000     0.1273     0.9602     0.5816     0.3786

  Mayer bond orders larger than 0.100000
B(  0-C ,  1-H ) :   0.9332 B(  0-C ,  2-C ) :   0.9224 B(  0-C ,  5-H ) :   0.9255 
B(  0-C ,  6-F ) :   0.7739 B(  2-C ,  3-F ) :   0.7833 B(  2-C ,  4-O ) :   1.3587 
B(  2-C ,  7-H ) :   0.5388 

-------
TIMINGS
-------

Total SCF time: 0 days 0 hours 0 min 13 sec 

Total time                  ....      13.294 sec
Sum of individual times     ....      12.472 sec  ( 93.8%)

Fock matrix formation       ....      11.961 sec  ( 90.0%)
Diagonalization             ....       0.093 sec  (  0.7%)
Density matrix formation    ....       0.003 sec  (  0.0%)
Population analysis         ....       0.098 sec  (  0.7%)
Initial guess               ....       0.133 sec  (  1.0%)
Orbital Transformation      ....       0.000 sec  (  0.0%)
Orbital Orthonormalization  ....       0.000 sec  (  0.0%)
DIIS solution               ....       0.068 sec  (  0.5%)

Maximum memory used throughout the entire SCF-calculation: 230.5 MB

------------------------------------------------------------------------------
                                ORCA  MP2 
------------------------------------------------------------------------------

MP2 will be done in the AO integral direct mode
The Q1-step will be done using symmetric double matrices
Dimension of the basis                    ...   76
Memory devoted for MP2                    ...  256 MB   
Memory needed for all in one shot         ...   37 MB
Number of MOs that can be treated together...  149      
MP2 density construction                  ... relaxed
The MP2 gradient is requested => amplitudes will be stored on disk
Total number of MOs              ...   21
Number of MOs treated per batch  ...   21 
Number of batches necessary      ...    1 
OPERATORS   0/  0 PASS   0
OPERATORS   0/  1 PASS   0
Total number of MOs              ...   21
Number of MOs treated per batch  ...   20 
Number of batches necessary      ...    1 
OPERATORS   1/  0 PASS   0
OPERATORS   1/  1 PASS   0

Correlation energy components
 E2 and T2 for alpha/alpha pairs :     -0.102657264 Eh
 E2 and T2 for beta/beta   pairs :     -0.101705686 Eh
 E2 and T2 for alpha/beta  pairs :     -0.543018367 Eh

-----------------------------------------------
 MP2 CORRELATION ENERGY   :     -0.747381317 Eh
-----------------------------------------------


---------------------
MP2 DENSITY FORMATION
---------------------

Completing the external part of the density      ... done
Storing the unrelaxed density                    ... done

Calculating G(D)                                 ... done
Completing the Lagrangian                        ... done
Solving the Z-vector equations                   ... 

------------------------------------------------------------------------------
                           ORCA CP-SCF CALCULATION
------------------------------------------------------------------------------

Input orbitals are from        ... input.gbw
Input Perturbation             ... input.pin.tmp
Wavefunction output            ... input.pout.tmp
Perturbation mode              ... Real perturbation (singlet)
Solver                         ... POPLE
Max. number of iterations      ... 128
Convergence tolerance          ... 3.000e-05
Integral handling              ... Direct
Number of perturbations        ... 1
Number of operators            ... 2
Orbital ranges used for CP-SCF:
 Operator 0:  Orbitals   0... 20  to  21... 75
 Operator 1:  Orbitals   0... 19  to  20... 75
Variables per perturbation     ... 2275
Memory available               ... 1015.5 MB
Memory needed per perturbation ...   4.7 MB
Perturbations treated per batch... 1
Number of batches              ... 1
     CP-SCF ITERATION   0:   1.1355e-01 (   0.4 sec)
     CP-SCF ITERATION   1:   6.3720e-02 (   0.4 sec)
     CP-SCF ITERATION   2:   1.8086e-02 (   0.3 sec)
     CP-SCF ITERATION   3:   1.0021e-02 (   0.3 sec)
     CP-SCF ITERATION   4:   5.1324e-03 (   0.3 sec)
     CP-SCF ITERATION   5:   3.1919e-03 (   0.3 sec)
     CP-SCF ITERATION   6:   1.2180e-03 (   0.3 sec)
     CP-SCF ITERATION   7:   6.5591e-04 (   0.3 sec)
     CP-SCF ITERATION   8:   6.6610e-04 (   0.3 sec)
     CP-SCF ITERATION   9:   5.5043e-04 (   0.3 sec)
     CP-SCF ITERATION  10:   2.7351e-04 (   0.3 sec)
     CP-SCF ITERATION  11:   1.0326e-04 (   0.3 sec)
     CP-SCF ITERATION  12:   4.6253e-05 (   0.3 sec)
     CP-SCF ITERATION  13:   1.7973e-05 (   0.3 sec)
                    *** THE CP-SCF HAS CONVERGED ***
                                                 ... done
Finalizing the relaxed density                   ... done
Transforming P to the AO basis                   ... done
Storing the relaxed density                      ... done

------------------------------------
ENERGY WEIGHTED DENSITY FINALIZATION
------------------------------------

Gathering the parts of the W-matrix              ...                                                                                                           done
Forming the Z-density                            ... done
Transforming Z to the AO basis                   ... done
Calculating G(Z)                                 ... done
Finalizing the W-matrix                          ...                                                                                                           done
Transforming W to the AO basis and storing       ... done

                *********************************************
                * UNRELAXED MP2 DENSITY POPULATION ANALYSIS *
                *********************************************

------------------------------------------------------------------------------
                           ORCA POPULATION ANALYSIS
------------------------------------------------------------------------------
Input electron density              ... input.pmp2ur
Input spin density                  ... input.rmp2ur
BaseName (.gbw .S,...)              ... input

                    ********************************
                    * MULLIKEN POPULATION ANALYSIS *
                    ********************************

------------------------------------------
MULLIKEN ATOMIC CHARGES AND SPIN DENSITIES
------------------------------------------
   0 C :    0.101455    0.094271
   1 H :    0.199045   -0.005447
   2 C :    0.525131   -0.450667
   3 F :   -0.418691   -0.003014
   4 O :   -0.303657    0.766405
   5 H :    0.201147   -0.010498
   6 F :   -0.433315   -0.002288
   7 H :    0.128884    0.611239
Sum of atomic charges       :    0.0000000
Sum of atomic spin densities:    1.0000000

---------------------------------------------------
MULLIKEN REDUCED ORBITAL CHARGES AND SPIN DENSITIES
---------------------------------------------------
CHARGE
  0 C s       :     3.189383  s :     3.189383
      pz      :     1.009899  p :     2.614631
      px      :     0.582839
      py      :     1.021894
      dz2     :     0.015669  d :     0.094530
      dxz     :     0.022053
      dyz     :     0.014095
      dx2y2   :     0.026730
      dxy     :     0.015982
  1 H s       :     0.800955  s :     0.800955
  2 C s       :     3.067541  s :     3.067541
      pz      :     0.639619  p :     2.258219
      px      :     0.719205
      py      :     0.899395
      dz2     :     0.031353  d :     0.149109
      dxz     :     0.047141
      dyz     :     0.020921
      dx2y2   :     0.028645
      dxy     :     0.021050
  3 F s       :     3.980307  s :     3.980307
      pz      :     1.623787  p :     5.401903
      px      :     1.862003
      py      :     1.916112
      dz2     :     0.010290  d :     0.036481
      dxz     :     0.009934
      dyz     :     0.007165
      dx2y2   :     0.004591
      dxy     :     0.004501
  4 O s       :     3.878988  s :     3.878988
      pz      :     1.835851  p :     4.373605
      px      :     1.370933
      py      :     1.166822
      dz2     :     0.007286  d :     0.051063
      dxz     :     0.012166
      dyz     :     0.004349
      dx2y2   :     0.012569
      dxy     :     0.014693
  5 H s       :     0.798853  s :     0.798853
  6 F s       :     3.977476  s :     3.977476
      pz      :     1.944668  p :     5.419416
      px      :     1.535253
      py      :     1.939495
      dz2     :     0.006392  d :     0.036423
      dxz     :     0.007362
      dyz     :     0.003805
      dx2y2   :     0.011532
      dxy     :     0.007331
  7 H s       :     0.871116  s :     0.871116

SPIN
  0 C s       :     0.020372  s :     0.020372
      pz      :     0.040256  p :     0.074909
      px      :     0.001802
      py      :     0.032851
      dz2     :     0.000007  d :    -0.001010
      dxz     :    -0.000305
      dyz     :     0.000341
      dx2y2   :    -0.001257
      dxy     :     0.000204
  1 H s       :    -0.005447  s :    -0.005447
  2 C s       :    -0.103732  s :    -0.103732
      pz      :    -0.031268  p :    -0.358730
      px      :    -0.062126
      py      :    -0.265336
      dz2     :     0.000725  d :     0.011796
      dxz     :    -0.001926
      dyz     :     0.000776
      dx2y2   :     0.000620
      dxy     :     0.011602
  3 F s       :    -0.000218  s :    -0.000218
      pz      :     0.002400  p :    -0.002838
      px      :    -0.000242
      py      :    -0.004997
      dz2     :     0.000108  d :     0.000042
      dxz     :    -0.000091
      dyz     :     0.000047
      dx2y2   :    -0.000070
      dxy     :     0.000049
  4 O s       :     0.032093  s :     0.032093
      pz      :     0.017111  p :     0.734586
      px      :     0.041951
      py      :     0.675523
      dz2     :     0.000100  d :    -0.000274
      dxz     :    -0.000161
      dyz     :     0.000918
      dx2y2   :     0.001175
      dxy     :    -0.002307
  5 H s       :    -0.010498  s :    -0.010498
  6 F s       :     0.000078  s :     0.000078
      pz      :     0.001291  p :    -0.002432
      px      :    -0.003783
      py      :     0.000061
      dz2     :     0.000019  d :     0.000066
      dxz     :    -0.000008
      dyz     :    -0.000009
      dx2y2   :     0.000017
      dxy     :     0.000047
  7 H s       :     0.611239  s :     0.611239


                     *******************************
                     * LOEWDIN POPULATION ANALYSIS *
                     *******************************

-----------------------------------------
LOEWDIN ATOMIC CHARGES AND SPIN DENSITIES
-----------------------------------------
   0 C :   -0.022674    0.065895
   1 H :    0.142773   -0.003793
   2 C :    0.089619   -0.264013
   3 F :   -0.190027   -0.009135
   4 O :   -0.063976    0.696355
   5 H :    0.144658   -0.009042
   6 F :   -0.216635   -0.001411
   7 H :    0.116263    0.525144

--------------------------------------------------
LOEWDIN REDUCED ORBITAL CHARGES AND SPIN DENSITIES
--------------------------------------------------
CHARGE
  0 C s       :     2.952857  s :     2.952857
      pz      :     1.070758  p :     2.887676
      px      :     0.728513
      py      :     1.088405
      dz2     :     0.028445  d :     0.182141
      dxz     :     0.042833
      dyz     :     0.023223
      dx2y2   :     0.055460
      dxy     :     0.032180
  1 H s       :     0.857227  s :     0.857227
  2 C s       :     2.879984  s :     2.879984
      pz      :     0.810546  p :     2.701349
      px      :     0.948549
      py      :     0.942254
      dz2     :     0.067236  d :     0.329048
      dxz     :     0.110267
      dyz     :     0.043689
      dx2y2   :     0.064511
      dxy     :     0.043346
  3 F s       :     3.751525  s :     3.751525
      pz      :     1.628463  p :     5.386227
      px      :     1.848823
      py      :     1.908941
      dz2     :     0.016737  d :     0.052275
      dxz     :     0.013599
      dyz     :     0.010972
      dx2y2   :     0.005662
      dxy     :     0.005304
  4 O s       :     3.563503  s :     3.563503
      pz      :     1.782881  p :     4.418808
      px      :     1.478358
      py      :     1.157569
      dz2     :     0.012028  d :     0.081665
      dxz     :     0.016939
      dyz     :     0.004657
      dx2y2   :     0.025131
      dxy     :     0.022910
  5 H s       :     0.855342  s :     0.855342
  6 F s       :     3.755517  s :     3.755517
      pz      :     1.933590  p :     5.409257
      px      :     1.543403
      py      :     1.932264
      dz2     :     0.007958  d :     0.051861
      dxz     :     0.011800
      dyz     :     0.004015
      dx2y2   :     0.016366
      dxy     :     0.011724
  7 H s       :     0.883737  s :     0.883737

SPIN
  0 C s       :     0.014486  s :     0.014486
      pz      :     0.027868  p :     0.055862
      px      :     0.003910
      py      :     0.024084
      dz2     :    -0.000175  d :    -0.004454
      dxz     :    -0.000856
      dyz     :    -0.000563
      dx2y2   :    -0.003029
      dxy     :     0.000169
  1 H s       :    -0.003793  s :    -0.003793
  2 C s       :    -0.046401  s :    -0.046401
      pz      :    -0.021290  p :    -0.249633
      px      :    -0.052171
      py      :    -0.176173
      dz2     :     0.002704  d :     0.032021
      dxz     :    -0.003289
      dyz     :     0.001973
      dx2y2   :     0.002557
      dxy     :     0.028076
  3 F s       :    -0.000914  s :    -0.000914
      pz      :     0.000472  p :    -0.005610
      px      :    -0.001253
      py      :    -0.004830
      dz2     :    -0.000425  d :    -0.002610
      dxz     :    -0.000420
      dyz     :    -0.001200
      dx2y2   :    -0.000232
      dxy     :    -0.000333
  4 O s       :     0.016780  s :     0.016780
      pz      :     0.014900  p :     0.685262
      px      :     0.027618
      py      :     0.642744
      dz2     :    -0.000480  d :    -0.005686
      dxz     :    -0.000590
      dyz     :     0.000887
      dx2y2   :     0.000093
      dxy     :    -0.005595
  5 H s       :    -0.009042  s :    -0.009042
  6 F s       :    -0.000394  s :    -0.000394
      pz      :     0.001347  p :    -0.001724
      px      :    -0.003389
      py      :     0.000318
      dz2     :     0.000021  d :     0.000707
      dxz     :     0.000260
      dyz     :     0.000001
      dx2y2   :     0.000240
      dxy     :     0.000185
  7 H s       :     0.525144  s :     0.525144


                      *****************************
                      * MAYER POPULATION ANALYSIS *
                      *****************************

  NA   - Mulliken gross atomic population
  ZA   - Total nuclear charge
  QA   - Mulliken gross atomic charge
  VA   - Mayer's total valence
  BVA  - Mayer's bonded valence
  FA   - Mayer's free valence

  ATOM       NA         ZA         QA         VA         BVA        FA
  0 C      5.8985     6.0000     0.1015     3.6593     3.4141     0.2452
  1 H      0.8010     1.0000     0.1990     0.9231     0.8873     0.0358
  2 C      5.4749     6.0000     0.5251     3.8073     3.4218     0.3854
  3 F      9.4187     9.0000    -0.4187     1.0941     0.7722     0.3220
  4 O      8.3037     8.0000    -0.3037     2.1871     1.3682     0.8190
  5 H      0.7989     1.0000     0.2011     0.9202     0.8846     0.0356
  6 F      9.4333     9.0000    -0.4333     1.0740     0.7589     0.3151
  7 H      0.8711     1.0000     0.1289     0.9629     0.5539     0.4089

  Mayer bond orders larger than 0.100000
B(  0-C ,  1-H ) :   0.9011 B(  0-C ,  2-C ) :   0.8757 B(  0-C ,  5-H ) :   0.8936 
B(  0-C ,  6-F ) :   0.7325 B(  2-C ,  3-F ) :   0.7431 B(  2-C ,  4-O ) :   1.2901 
B(  2-C ,  7-H ) :   0.5161 


                *******************************************
                * RELAXED MP2 DENSITY POPULATION ANALYSIS *
                *******************************************

------------------------------------------------------------------------------
                           ORCA POPULATION ANALYSIS
------------------------------------------------------------------------------
Input electron density              ... input.pmp2re
Input spin density                  ... input.rmp2re
BaseName (.gbw .S,...)              ... input

                    ********************************
                    * MULLIKEN POPULATION ANALYSIS *
                    ********************************

------------------------------------------
MULLIKEN ATOMIC CHARGES AND SPIN DENSITIES
------------------------------------------
   0 C :    0.048928    0.062042
   1 H :    0.192928   -0.002934
   2 C :    0.429024   -0.141514
   3 F :   -0.337055    0.001170
   4 O :   -0.334216    0.509981
   5 H :    0.200363    0.001445
   6 F :   -0.366882   -0.000318
   7 H :    0.166910    0.570128
Sum of atomic charges       :    0.0000000
Sum of atomic spin densities:    1.0000000

---------------------------------------------------
MULLIKEN REDUCED ORBITAL CHARGES AND SPIN DENSITIES
---------------------------------------------------
CHARGE
  0 C s       :     3.191621  s :     3.191621
      pz      :     1.023939  p :     2.671209
      px      :     0.614959
      py      :     1.032310
      dz2     :     0.014309  d :     0.088242
      dxz     :     0.021258
      dyz     :     0.012257
      dx2y2   :     0.024358
      dxy     :     0.016061
  1 H s       :     0.807072  s :     0.807072
  2 C s       :     3.091528  s :     3.091528
      pz      :     0.704527  p :     2.330611
      px      :     0.780544
      py      :     0.845540
      dz2     :     0.029851  d :     0.148837
      dxz     :     0.048668
      dyz     :     0.019788
      dx2y2   :     0.025624
      dxy     :     0.024906
  3 F s       :     3.968320  s :     3.968320
      pz      :     1.600391  p :     5.333228
      px      :     1.846143
      py      :     1.886694
      dz2     :     0.009842  d :     0.035507
      dxz     :     0.009089
      dyz     :     0.007450
      dx2y2   :     0.004610
      dxy     :     0.004517
  4 O s       :     3.850951  s :     3.850951
      pz      :     1.776715  p :     4.432947
      px      :     1.349799
      py      :     1.306434
      dz2     :     0.006949  d :     0.050318
      dxz     :     0.012664
      dyz     :     0.004354
      dx2y2   :     0.011551
      dxy     :     0.014800
  5 H s       :     0.799637  s :     0.799637
  6 F s       :     3.969289  s :     3.969289
      pz      :     1.931714  p :     5.361883
      px      :     1.504206
      py      :     1.925963
      dz2     :     0.006071  d :     0.035710
      dxz     :     0.007672
      dyz     :     0.003817
      dx2y2   :     0.010544
      dxy     :     0.007605
  7 H s       :     0.833090  s :     0.833090

SPIN
  0 C s       :     0.009454  s :     0.009454
      pz      :     0.029795  p :     0.052526
      px      :     0.000934
      py      :     0.021797
      dz2     :     0.000348  d :     0.000061
      dxz     :     0.000000
      dyz     :     0.000358
      dx2y2   :    -0.000878
      dxy     :     0.000234
  1 H s       :    -0.002934  s :    -0.002934
  2 C s       :    -0.029694  s :    -0.029694
      pz      :    -0.015111  p :    -0.123417
      px      :    -0.021054
      py      :    -0.087252
      dz2     :     0.000946  d :     0.011597
      dxz     :    -0.001401
      dyz     :     0.000768
      dx2y2   :     0.000433
      dxy     :     0.010852
  3 F s       :    -0.000331  s :    -0.000331
      pz      :    -0.002022  p :     0.001556
      px      :    -0.002556
      py      :     0.006134
      dz2     :     0.000116  d :    -0.000056
      dxz     :     0.000005
      dyz     :    -0.000135
      dx2y2   :    -0.000065
      dxy     :     0.000023
  4 O s       :     0.020684  s :     0.020684
      pz      :     0.015398  p :     0.488620
      px      :     0.019785
      py      :     0.453437
      dz2     :     0.000158  d :     0.000677
      dxz     :    -0.000173
      dyz     :     0.000933
      dx2y2   :     0.001207
      dxy     :    -0.001448
  5 H s       :     0.001445  s :     0.001445
  6 F s       :     0.000284  s :     0.000284
      pz      :     0.001716  p :    -0.000654
      px      :    -0.002326
      py      :    -0.000045
      dz2     :     0.000009  d :     0.000052
      dxz     :    -0.000003
      dyz     :    -0.000012
      dx2y2   :     0.000016
      dxy     :     0.000041
  7 H s       :     0.570128  s :     0.570128


                     *******************************
                     * LOEWDIN POPULATION ANALYSIS *
                     *******************************

-----------------------------------------
LOEWDIN ATOMIC CHARGES AND SPIN DENSITIES
-----------------------------------------
   0 C :   -0.056724    0.058539
   1 H :    0.146368   -0.002268
   2 C :    0.070260   -0.057160
   3 F :   -0.150841    0.003944
   4 O :   -0.135070    0.481998
   5 H :    0.152078   -0.000482
   6 F :   -0.186106   -0.000521
   7 H :    0.160035    0.515951

--------------------------------------------------
LOEWDIN REDUCED ORBITAL CHARGES AND SPIN DENSITIES
--------------------------------------------------
CHARGE
  0 C s       :     2.961297  s :     2.961297
      pz      :     1.079345  p :     2.920363
      px      :     0.747656
      py      :     1.093362
      dz2     :     0.026759  d :     0.175064
      dxz     :     0.042336
      dyz     :     0.021584
      dx2y2   :     0.051840
      dxy     :     0.032545
  1 H s       :     0.853632  s :     0.853632
  2 C s       :     2.892388  s :     2.892388
      pz      :     0.840135  p :     2.704522
      px      :     0.971989
      py      :     0.892398
      dz2     :     0.066208  d :     0.332830
      dxz     :     0.112828
      dyz     :     0.043440
      dx2y2   :     0.061650
      dxy     :     0.048703
  3 F s       :     3.754825  s :     3.754825
      pz      :     1.617944  p :     5.343212
      px      :     1.841518
      py      :     1.883751
      dz2     :     0.017257  d :     0.052804
      dxz     :     0.013897
      dyz     :     0.010633
      dx2y2   :     0.005688
      dxy     :     0.005329
  4 O s       :     3.560011  s :     3.560011
      pz      :     1.737355  p :     4.495170
      px      :     1.466897
      py      :     1.290918
      dz2     :     0.011869  d :     0.079889
      dxz     :     0.017777
      dyz     :     0.004682
      dx2y2   :     0.024786
      dxy     :     0.020775
  5 H s       :     0.847922  s :     0.847922
  6 F s       :     3.757238  s :     3.757238
      pz      :     1.925520  p :     5.375985
      px      :     1.526418
      py      :     1.924047
      dz2     :     0.007981  d :     0.052883
      dxz     :     0.012287
      dyz     :     0.004030
      dx2y2   :     0.016451
      dxy     :     0.012134
  7 H s       :     0.839965  s :     0.839965

SPIN
  0 C s       :     0.012076  s :     0.012076
      pz      :     0.023208  p :     0.048028
      px      :     0.003590
      py      :     0.021229
      dz2     :     0.000451  d :    -0.001564
      dxz     :    -0.000215
      dyz     :    -0.000041
      dx2y2   :    -0.002052
      dxy     :     0.000293
  1 H s       :    -0.002268  s :    -0.002268
  2 C s       :    -0.016356  s :    -0.016356
      pz      :    -0.009789  p :    -0.070163
      px      :    -0.019220
      py      :    -0.041154
      dz2     :     0.002680  d :     0.029359
      dxz     :    -0.002561
      dyz     :     0.002011
      dx2y2   :     0.001133
      dxy     :     0.026096
  3 F s       :    -0.000056  s :    -0.000056
      pz      :    -0.001760  p :     0.004577
      px      :    -0.002547
      py      :     0.008883
      dz2     :    -0.000123  d :    -0.000578
      dxz     :    -0.000120
      dyz     :    -0.000133
      dx2y2   :    -0.000050
      dxy     :    -0.000151
  4 O s       :     0.010398  s :     0.010398
      pz      :     0.013271  p :     0.471685
      px      :     0.016194
      py      :     0.442220
      dz2     :    -0.000057  d :    -0.000085
      dxz     :    -0.000313
      dyz     :     0.000927
      dx2y2   :     0.000928
      dxy     :    -0.001570
  5 H s       :    -0.000482  s :    -0.000482
  6 F s       :    -0.000415  s :    -0.000415
      pz      :     0.001575  p :    -0.000687
      px      :    -0.002356
      py      :     0.000094
      dz2     :     0.000004  d :     0.000581
      dxz     :     0.000206
      dyz     :     0.000010
      dx2y2   :     0.000216
      dxy     :     0.000145
  7 H s       :     0.515951  s :     0.515951


                      *****************************
                      * MAYER POPULATION ANALYSIS *
                      *****************************

  NA   - Mulliken gross atomic population
  ZA   - Total nuclear charge
  QA   - Mulliken gross atomic charge
  VA   - Mayer's total valence
  BVA  - Mayer's bonded valence
  FA   - Mayer's free valence

  ATOM       NA         ZA         QA         VA         BVA        FA
  0 C      5.9511     6.0000     0.0489     3.7388     3.5073     0.2315
  1 H      0.8071     1.0000     0.1929     0.9248     0.8894     0.0354
  2 C      5.5710     6.0000     0.4290     4.0137     3.8385     0.1752
  3 F      9.3371     9.0000    -0.3371     1.2177     0.9144     0.3033
  4 O      8.3342     8.0000    -0.3342     2.2645     1.8378     0.4267
  5 H      0.7996     1.0000     0.2004     0.9204     0.8873     0.0331
  6 F      9.3669     9.0000    -0.3669     1.1723     0.8624     0.3099
  7 H      0.8331     1.0000     0.1669     0.9507     0.6013     0.3494

  Mayer bond orders larger than 0.100000
B(  0-C ,  1-H ) :   0.8923 B(  0-C ,  2-C ) :   0.8655 B(  0-C ,  5-H ) :   0.8847 
B(  0-C ,  6-F ) :   0.8155 B(  2-C ,  3-F ) :   0.8408 B(  2-C ,  4-O ) :   1.6380 
B(  2-C ,  7-H ) :   0.4811 B(  4-O ,  7-H ) :   0.1054 


----------------------------------
MP2 DERIVATIVE INTEGRAL GENERATION
----------------------------------


Input Wavefunction Amplitudes       ... input.mp2tbb.tmp
Input Correlated Electron Density   ... input.pmp2re
Input Energy Weighted Density       ... input.wmp2.tmp
Input SCF Electron Density          ... input.scfp

One-Electron Terms    ...
                        ... One-Electron Terms done
Prescreening matrices              ... done

Batch handling in the gradient evaluation:
Memory available                      ...  256.0 MB
Memory per occupied orbital in Q2     ...    1.8 MB
Memory per occupied orbital in Q3     ...    0.0 MB
Total memory requirement per |i>      ...    1.8 MB
Max. Number of orbitals possible      ...    140
Number of orbitals treated per batch  ...     41
Number of batches to be done          ...      1
Batch   0: i=    0 ...    40

---------------------------------------
MP2 TOTAL ENERGY:     -351.846078968 Eh
---------------------------------------

The final MP2 gradient
  0:  -0.02421406  -0.01263288  -0.00412916
  1:   0.00055211  -0.00137239   0.00263246
  2:  -0.02882431   0.00826125  -0.01207356
  3:  -0.00311858   0.00228343   0.00947143
  4:   0.04804656  -0.02982145   0.01329680
  5:   0.00208768  -0.00156118   0.00375201
  6:  -0.01219815   0.00673181  -0.00535159
  7:   0.01766876   0.02811142  -0.00759839

-----------------------------------
NORM OF THE MP2 GRADIENT:  0.081853
-----------------------------------

Maximum memory used throughout the entire MP2-calculation: 152.6 MB

-------------------------   --------------------
FINAL SINGLE POINT ENERGY      -351.846078968380
-------------------------   --------------------

------------------------------------------------------------------------------
                         ORCA GEOMETRY RELAXATION STEP
------------------------------------------------------------------------------

Reading the OPT-File                    .... done
Getting information on internals        .... done
Copying old internal coords+grads       .... done
Making the new internal coordinates     .... (new redundants).... done
Validating the new internal coordinates .... (new redundants).... done
Calculating the B-matrix                .... done
Calculating the G,G- and P matrices     .... done
Transforming gradient to internals      .... done
Projecting the internal gradient        .... done
Number of atoms                         ....   8
Number of internal coordinates          ....  28
Current Energy                          ....  -351.846078968 Eh
Current gradient norm                   ....     0.081853407 Eh/bohr
Maximum allowed component of the step   ....  0.300
Current trust radius                    ....  0.300
Evaluating the initial hessian          ....  (Almloef) done
Projecting the Hessian                  .... done
Diagonalizing the Hessian               .... done
Dimension of the hessian                ....  28
Lowest eigenvalues of the Hessian:
  0.011618111  0.078400187  0.106150122  0.115677628  0.116480935
Hessian has   0 negative eigenvalues
Taking P-RFO step
Searching for lambda that maximizes along the lowest mode
TS mode is mode number   0 with eigenvalue   0.01161811 and components:
   1.    0.00000000
   2.   -0.00000000
   3.   -0.00000000
   4.    0.00000000
   5.    0.00000000
   6.    0.00000000
   7.   -0.00000000
   8.    0.00000000
   9.   -0.00000000
  10.    0.00000000
  11.    0.00000000
  12.   -0.00000000
  13.   -0.00000000
  14.    0.00000000
  15.   -0.00000000
  16.   -0.00000000
  17.   -0.00000000
  18.    0.00000000
  19.   -0.00000000
  20.    0.33333333
  21.    0.33333333
  22.    0.33333333
  23.    0.33333333
  24.    0.33333333
  25.    0.33333333
  26.    0.33333333
  27.    0.33333333
  28.    0.33333333

Lambda that maximizes along the TS mode:       0.01212157
Searching for lambda that minimizes along all other modes
In cycle   1: lambdaN =  -0.02311124   step =   0.02311124
In cycle   2: lambdaN =  -0.02402743   step =   0.00091619
In cycle   3: lambdaN =  -0.02402831   step =   0.00000088
In cycle   4: lambdaN =  -0.02402831   step =   0.00000000
Lambda that minimizes along all other modes:  -0.02402831
Calculated stepsize too large (   0.9650 >    0.3000). Scaled with    0.3109.
The final length of the internal step   ....       0.3000
Converting the step to cartesian space:
 Initial RMS(Int)=    0.0566946710
Transforming coordinates:
 Iter   0:  RMS(Cart)=    0.0580375553 RMS(Int)=    0.0565891570
 Iter   1:  RMS(Cart)=    0.0015523862 RMS(Int)=    0.0012778627
 Iter   2:  RMS(Cart)=    0.0000736471 RMS(Int)=    0.0000730497
 Iter   3:  RMS(Cart)=    0.0000037506 RMS(Int)=    0.0000032806
 Iter   4:  RMS(Cart)=    0.0000001788 RMS(Int)=    0.0000001785
 Iter   5:  RMS(Cart)=    0.0000000088 RMS(Int)=    0.0000000078
done
Storing new coordinates                 .... done

                                .--------------------.
          ----------------------|Geometry convergence|-------------------------
          Item                value                   Tolerance       Converged
          ---------------------------------------------------------------------
          RMS gradient        0.0165942789            0.0000080000      NO
          MAX gradient        0.0505202052            0.0000300000      NO
          RMS step            0.0566946710            0.0001000000      NO
          MAX step            0.0932600018            0.0002000000      NO
          ........................................................
          Max(Bonds)      0.0494      Max(Angles)    1.91
          Max(Dihed)        5.34      Max(Improp)    0.00
          ---------------------------------------------------------------------

The optimization has not yet converged - more geometry cycles are needed


    ---------------------------------------------------------------------------
                         Redundant Internal Coordinates
                            (Angstroem and degrees)

        Definition                    Value    dE/dq     Step     New-Value  comp.(TS mode)
    ----------------------------------------------------------------------------
     1. B(H   1,C   0)                1.0911  0.001757 -0.0008    1.0904   
     2. B(C   2,C   0)                1.5240 -0.007327  0.0030    1.5270   
     3. B(F   3,C   2)                1.3670 -0.010145  0.0028    1.3698   
[...]
AutoCI program output          ... >input.lastautoci

	<< Calculating on displaced geometry   1 (of  48) >>
	<< Calculating on displaced geometry   2 (of  48) >>
	<< Calculating on displaced geometry   3 (of  48) >>
	<< Calculating on displaced geometry   4 (of  48) >>
	<< Calculating on displaced geometry   5 (of  48) >>
	<< Calculating on displaced geometry   6 (of  48) >>
	<< Calculating on displaced geometry   7 (of  48) >>
	<< Calculating on displaced geometry   8 (of  48) >>
	<< Calculating on displaced geometry   9 (of  48) >>
	<< Calculating on displaced geometry  10 (of  48) >>
	<< Calculating on displaced geometry  11 (of  48) >>
	<< Calculating on displaced geometry  12 (of  48) >>
	<< Calculating on displaced geometry  13 (of  48) >>
	<< Calculating on displaced geometry  14 (of  48) >>
	<< Calculating on displaced geometry  15 (of  48) >>
	<< Calculating on displaced geometry  16 (of  48) >>
	<< Calculating on displaced geometry  17 (of  48) >>
	<< Calculating on displaced geometry  18 (of  48) >>
	<< Calculating on displaced geometry  19 (of  48) >>
	<< Calculating on displaced geometry  20 (of  48) >>
	<< Calculating on displaced geometry  21 (of  48) >>
	<< Calculating on displaced geometry  22 (of  48) >>
	<< Calculating on displaced geometry  23 (of  48) >>
	<< Calculating on displaced geometry  24 (of  48) >>
	<< Calculating on displaced geometry  25 (of  48) >>
	<< Calculating on displaced geometry  26 (of  48) >>
	<< Calculating on displaced geometry  27 (of  48) >>
	<< Calculating on displaced geometry  28 (of  48) >>
	<< Calculating on displaced geometry  29 (of  48) >>
	<< Calculating on displaced geometry  30 (of  48) >>
	<< Calculating on displaced geometry  31 (of  48) >>
	<< Calculating on displaced geometry  32 (of  48) >>
	<< Calculating on displaced geometry  33 (of  48) >>
	<< Calculating on displaced geometry  34 (of  48) >>
	<< Calculating on displaced geometry  35 (of  48) >>
	<< Calculating on displaced geometry  36 (of  48) >>
	<< Calculating on displaced geometry  37 (of  48) >>
	<< Calculating on displaced geometry  38 (of  48) >>
	<< Calculating on displaced geometry  39 (of  48) >>
	<< Calculating on displaced geometry  40 (of  48) >>
	<< Calculating on displaced geometry  41 (of  48) >>
	<< Calculating on displaced geometry  42 (of  48) >>
	<< Calculating on displaced geometry  43 (of  48) >>
	<< Calculating on displaced geometry  44 (of  48) >>
	<< Calculating on displaced geometry  45 (of  48) >>
	<< Calculating on displaced geometry  46 (of  48) >>
	<< Calculating on displaced geometry  47 (of  48) >>
	<< Calculating on displaced geometry  48 (of  48) >>

-----------------------
VIBRATIONAL FREQUENCIES
-----------------------

Scaling factor for frequencies =  1.000000000 (already applied!)

   0:         0.00 cm**-1
   1:         0.00 cm**-1
   2:         0.00 cm**-1
   3:         0.00 cm**-1
   4:         0.00 cm**-1
   5:         0.00 cm**-1
   6:     -1831.22 cm**-1 ***imaginary mode***
   7:       137.42 cm**-1
   8:       248.36 cm**-1
   9:       466.43 cm**-1
  10:       531.18 cm**-1
  11:       682.82 cm**-1
  12:       705.60 cm**-1
  13:       737.74 cm**-1
  14:       891.68 cm**-1
  15:      1100.65 cm**-1
  16:      1140.11 cm**-1
  17:      1229.21 cm**-1
  18:      1299.91 cm**-1
  19:      1433.88 cm**-1
  20:      1559.53 cm**-1
  21:      1817.38 cm**-1
  22:      3142.03 cm**-1
  23:      3230.23 cm**-1


------------
NORMAL MODES
------------

These modes are the cartesian displacements weighted by the diagonal matrix
M(i,i)=1/sqrt(m[i]) where m[i] is the mass of the displaced atom
Thus, these vectors are normalized but *not* orthogonal

                  0          1          2          3          4          5    
      0       0.000000   0.000000   0.000000   0.000000   0.000000   0.000000
      1       0.000000   0.000000   0.000000   0.000000   0.000000   0.000000
      2       0.000000   0.000000   0.000000   0.000000   0.000000   0.000000
      3       0.000000   0.000000   0.000000   0.000000   0.000000   0.000000
      4       0.000000   0.000000   0.000000   0.000000   0.000000   0.000000
      5       0.000000   0.000000   0.000000   0.000000   0.000000   0.000000
      6       0.000000   0.000000   0.000000   0.000000   0.000000   0.000000
      7       0.000000   0.000000   0.000000   0.000000   0.000000   0.000000
      8       0.000000   0.000000   0.000000   0.000000   0.000000   0.000000
      9       0.000000   0.000000   0.000000   0.000000   0.000000   0.000000
     10       0.000000   0.000000   0.000000   0.000000   0.000000   0.000000
     11       0.000000   0.000000   0.000000   0.000000   0.000000   0.000000
     12       0.000000   0.000000   0.000000   0.000000   0.000000   0.000000
     13       0.000000   0.000000   0.000000   0.000000   0.000000   0.000000
     14       0.000000   0.000000   0.000000   0.000000   0.000000   0.000000
     15       0.000000   0.000000   0.000000   0.000000   0.000000   0.000000
     16       0.000000   0.000000   0.000000   0.000000   0.000000   0.000000
     17       0.000000   0.000000   0.000000   0.000000   0.000000   0.000000
     18       0.000000   0.000000   0.000000   0.000000   0.000000   0.000000
     19       0.000000   0.000000   0.000000   0.000000   0.000000   0.000000
     20       0.000000   0.000000   0.000000   0.000000   0.000000   0.000000
     21       0.000000   0.000000   0.000000   0.000000   0.000000   0.000000
     22       0.000000   0.000000   0.000000   0.000000   0.000000   0.000000
     23       0.000000   0.000000   0.000000   0.000000   0.000000   0.000000
                  6          7          8          9         10         11    
      0      -0.010816   0.018821  -0.061015   0.177654   0.015269  -0.028999
      1      -0.024690  -0.192526  -0.200927  -0.003937  -0.100341   0.061469
      2      -0.000664  -0.141211  -0.027220  -0.054298   0.178827   0.009339
      3      -0.003975  -0.247234   0.023994   0.178183   0.114700  -0.072263
      4      -0.008960  -0.521133  -0.518887  -0.387121   0.203466  -0.245552
      5      -0.000916  -0.151537   0.115278   0.070477   0.127098   0.088313
      6       0.132358   0.024835  -0.085857  -0.137895  -0.007319   0.161625
      7       0.112336  -0.043952  -0.054759   0.124333  -0.143488   0.167459
      8       0.049818  -0.029731   0.137156   0.045586   0.017980   0.108061
      9      -0.001741  -0.106658   0.169925  -0.135854  -0.097781  -0.143322
     10      -0.016318  -0.070644  -0.162848  -0.044547   0.097645  -0.014398
     11      -0.016464  -0.114443   0.309607   0.129267  -0.049190   0.048056
     12      -0.055286   0.081376  -0.007083  -0.148691   0.057172   0.124034
     13       0.003682   0.136282   0.186221   0.100613   0.065339  -0.158214
     14      -0.002748   0.088834  -0.086736  -0.274956  -0.146087  -0.102351
     15       0.032232   0.329288   0.184017   0.239932   0.054775  -0.088305
     16      -0.034979  -0.208378  -0.220808   0.057625  -0.188080   0.167289
     17       0.028721  -0.457359  -0.238975  -0.430237   0.559577  -0.419675
     18      -0.001737  -0.008167  -0.079475   0.234640   0.029119  -0.069153
     19       0.001503   0.153099   0.216110  -0.115305   0.026566   0.010148
     20       0.000000   0.176985  -0.318106   0.119943  -0.012912  -0.041056
     21      -0.533464   0.270262  -0.050246  -0.393669   0.122445   0.616139
     22      -0.779661  -0.169800  -0.173184   0.310736  -0.488114  -0.058289
     23      -0.259597   0.057060   0.350595   0.130766   0.457364   0.425062
                 12         13         14         15         16         17    
      0      -0.010985   0.000123  -0.015726   0.069766   0.408148   0.085767
      1      -0.043437  -0.059703   0.063431   0.214504  -0.034875  -0.007696
      2       0.027242   0.067998  -0.247122   0.048133  -0.112538   0.172261
      3      -0.028048   0.032319  -0.114451  -0.116264   0.653014  -0.279057
      4      -0.052951  -0.166763   0.522592  -0.405461   0.303935  -0.262671
      5       0.024251   0.119055  -0.450342   0.168652  -0.114338   0.109055
      6       0.096474  -0.014609   0.054622  -0.040955  -0.025150   0.067659
      7      -0.043229   0.000167  -0.154232  -0.203553   0.045920   0.090855
      8       0.035642   0.049913  -0.080772   0.046094   0.099907  -0.376073
      9      -0.060445  -0.009877  -0.109627   0.006712   0.010358  -0.043092
     10       0.011256   0.044126   0.050871   0.028755  -0.011104   0.005985
     11       0.000091   0.008652   0.224206  -0.018889  -0.013497   0.108304
     12       0.102018  -0.003172   0.082373   0.042568  -0.029147  -0.016782
     13       0.005956  -0.003943  -0.001188   0.034580   0.007438  -0.004301
     14      -0.021741  -0.038991  -0.013286  -0.002098  -0.027574   0.047975
     15      -0.013856   0.034806  -0.065415   0.257814   0.224533   0.771310
     16      -0.046575  -0.049849  -0.017504   0.292037  -0.087892  -0.166339
     17       0.033312  -0.025387   0.220111  -0.577766   0.351319   0.068099
     18      -0.037870  -0.001954   0.020777  -0.057271  -0.279269  -0.066248
     19       0.010985   0.005294  -0.000219  -0.038154  -0.016938  -0.032651
     20      -0.016033  -0.008137   0.027085  -0.013014   0.031883  -0.029243
     21      -0.743033   0.378808   0.083527  -0.207577   0.089614   0.006693
     22       0.618484   0.057184  -0.358932  -0.388789   0.062806   0.008951
     23      -0.161323  -0.889499  -0.387955  -0.079063   0.004658  -0.000130
                 18         19         20         21         22         23    
      0      -0.005679  -0.124272   0.063294   0.013721   0.031488  -0.017223
      1       0.028654   0.075045   0.043130  -0.032516   0.055991   0.059840
      2      -0.007273  -0.095176  -0.038750   0.009908  -0.023329   0.072944
      3      -0.645070   0.528289  -0.371286  -0.108396  -0.186774   0.321681
      4       0.177607  -0.323171  -0.619084   0.058227   0.159173  -0.251186
      5      -0.324204   0.317292   0.007674  -0.053351   0.439458  -0.763815
      6      -0.006699   0.002429   0.002051  -0.457072   0.001081  -0.000773
      7       0.016157   0.004624   0.003768   0.231865  -0.000010   0.001626
      8       0.118401   0.021555  -0.003796  -0.025217   0.001348   0.000709
      9       0.012321   0.000841  -0.000540   0.004944  -0.000054   0.000191
     10      -0.007575  -0.000860  -0.000944  -0.009187  -0.000075  -0.000051
     11      -0.027524  -0.007847   0.001008   0.001421   0.000043  -0.000507
     12      -0.015003   0.018220  -0.003493   0.354241  -0.000561   0.000288
     13      -0.000591  -0.010346   0.000987  -0.103497   0.000008  -0.000109
     14      -0.016050   0.000235  -0.000545   0.018779  -0.000159  -0.000186
     15       0.595147   0.532792  -0.396753   0.044842  -0.201778  -0.114710
     16      -0.153851  -0.195335   0.021139  -0.056431  -0.818019  -0.468707
     17       0.183655   0.400718   0.559644   0.085345  -0.179178  -0.089201
     18       0.007046   0.003439   0.002256   0.007466   0.000504   0.000049
     19      -0.027454  -0.014951   0.002830  -0.002272  -0.000230  -0.000399
     20      -0.022427   0.015398  -0.003947   0.001245   0.000168  -0.000600
     21       0.070521   0.020899   0.012504  -0.510054   0.000878  -0.001629
     22       0.111868   0.031405  -0.012097  -0.518500  -0.002574  -0.002310
     23       0.012573   0.013196   0.003677  -0.197882   0.000187  -0.000788


-----------
IR SPECTRUM
-----------

 Mode   freq       eps      Int      T**2         TX        TY        TZ
       cm**-1   L/(mol*cm) km/mol    a.u.
----------------------------------------------------------------------------
  7:    137.42   0.002361   11.93  0.005361  ( 0.008091 -0.060388 -0.040606)
  8:    248.36   0.001517    7.67  0.001906  (-0.015815 -0.034231  0.022000)
  9:    466.43   0.000072    0.36  0.000048  ( 0.000678  0.006353  0.002719)
 10:    531.18   0.007538   38.09  0.004429  ( 0.005739 -0.045966  0.047778)
 11:    682.82   0.005200   26.28  0.002377  ( 0.037190  0.018809  0.025291)
 12:    705.60   0.002166   10.95  0.000958  (-0.021009 -0.019362 -0.011908)
 13:    737.74   0.001211    6.12  0.000512  ( 0.013087  0.006201  0.017392)
 14:    891.68   0.013341   67.42  0.004669  ( 0.016884 -0.009727 -0.065493)
 15:   1100.65   0.002981   15.06  0.000845  ( 0.012467 -0.017419  0.019654)
 16:   1140.11   0.012139   61.34  0.003323  ( 0.054302  0.004508  0.018803)
 17:   1229.21   0.028233  142.68  0.007168  ( 0.046819 -0.004484 -0.070396)
 18:   1299.91   0.006863   34.68  0.001647  (-0.016637  0.014105  0.034231)
 19:   1433.88   0.005910   29.87  0.001286  (-0.034317  0.010271  0.001747)
 20:   1559.53   0.000630    3.18  0.000126  ( 0.005949 -0.005109  0.008038)
 21:   1817.38   0.023626  119.40  0.004057  (-0.055313  0.028378  0.013856)
 22:   3142.03   0.001848    9.34  0.000184  ( 0.011514  0.006833 -0.002073)
 23:   3230.23   0.001609    8.13  0.000155  (-0.001968  0.004677  0.011388)

* The epsilon (eps) is given for a Dirac delta lineshape.
** The dipole moment derivative (T) already includes vibrational overlap.

The first frequency considered to be a vibration is 7
The total number of vibrations considered is 17


--------------------------
THERMOCHEMISTRY AT 298.15K
--------------------------

Temperature         ... 298.15 K
Pressure            ... 1.00 atm
Total Mass          ... 81.04 AMU

Throughout the following assumptions are being made:
  (1) The electronic state is orbitally nondegenerate
      but the spin degeneracy is treated
  (2) There are no thermally accessible electronically excited states
  (3) Hindered rotations indicated by low frequency modes are not
      treated as such but are treated as vibrations and this may
      cause some error
  (4) All equations used are the standard statistical mechanics
      equations for an ideal gas
  (5) All vibrations are strictly harmonic

freq.     137.42  E(vib)   ...       0.42 
freq.     248.36  E(vib)   ...       0.31 
freq.     466.43  E(vib)   ...       0.16 
freq.     531.18  E(vib)   ...       0.13 
freq.     682.82  E(vib)   ...       0.08 
freq.     705.60  E(vib)   ...       0.07 
freq.     737.74  E(vib)   ...       0.06 
freq.     891.68  E(vib)   ...       0.03 
freq.    1100.65  E(vib)   ...       0.02 
freq.    1140.11  E(vib)   ...       0.01 
freq.    1229.21  E(vib)   ...       0.01 
freq.    1299.91  E(vib)   ...       0.01 
freq.    1433.88  E(vib)   ...       0.00 
freq.    1559.53  E(vib)   ...       0.00 
freq.    1817.38  E(vib)   ...       0.00 
freq.    3142.03  E(vib)   ...       0.00 
freq.    3230.23  E(vib)   ...       0.00 

------------
INNER ENERGY
------------

The inner energy is: U= E(el) + E(ZPE) + E(vib) + E(rot) + E(trans)
    E(el)   - is the total energy from the electronic structure calculation
              = E(kin-el) + E(nuc-el) + E(el-el) + E(nuc-nuc)
    E(ZPE)  - the the zero temperature vibrational energy from the frequency calculation
    E(vib)  - the the finite temperature correction to E(ZPE) due to population
              of excited vibrational states
    E(rot)  - is the rotational thermal energy
    E(trans)- is the translational thermal energy

Summary of contributions to the inner energy U:
Electronic energy                ...   -351.85972229 Eh
Zero point energy                ...      0.04637016 Eh      29.10 kcal/mol
Thermal vibrational correction   ...      0.00207470 Eh       1.30 kcal/mol
Thermal rotational correction    ...      0.00141627 Eh       0.89 kcal/mol
Thermal translational correction ...      0.00141627 Eh       0.89 kcal/mol
-----------------------------------------------------------------------
Total thermal energy                   -351.80844489 Eh


Summary of corrections to the electronic energy:
(perhaps to be used in another calculation)
Total thermal correction                  0.00490724 Eh       3.08 kcal/mol
Non-thermal (ZPE) correction              0.04637016 Eh      29.10 kcal/mol
-----------------------------------------------------------------------
Total correction                          0.05127740 Eh      32.18 kcal/mol


--------
ENTHALPY
--------

The enthalpy is H = U + kB*T
                kB is Boltzmann's constant
Total free energy                 ...   -351.80844489 Eh 
Thermal Enthalpy correction       ...      0.00094421 Eh       0.59 kcal/mol
-----------------------------------------------------------------------
Total Enthalpy                    ...   -351.80750068 Eh


Note: Only C1 symmetry has been detected, increase convergence thresholds 
      if your molecule has a higher symmetry. Symmetry factor of 1.0 is   
      used for the rotational entropy correction. 
 

Note: Rotational entropy computed according to Herzberg 
Infrared and Raman Spectra, Chapter V,1, Van Nostrand Reinhold, 1945 
Point Group:  C1, Symmetry Number:   1  
Rotational constants in cm-1:     0.309281     0.131060     0.099422 

Vibrational entropy computed according to the QRRHO of S. Grimme
Chem.Eur.J. 2012 18 9955


-------
ENTROPY
-------

The entropy contributions are T*S = T*(S(el)+S(vib)+S(rot)+S(trans))
     S(el)   - electronic entropy
     S(vib)  - vibrational entropy
     S(rot)  - rotational entropy
     S(trans)- translational entropy
The entropies will be listed as multiplied by the temperature to get
units of energy

Electronic entropy                ...      0.00065446 Eh      0.41 kcal/mol
Vibrational entropy               ...      0.00337285 Eh      2.12 kcal/mol
Rotational entropy                ...      0.01211391 Eh      7.60 kcal/mol
Translational entropy             ...      0.01857352 Eh     11.66 kcal/mol
-----------------------------------------------------------------------
Final entropy term                ...      0.03471474 Eh     21.78 kcal/mol

In case the symmetry of your molecule has not been determined correctly
or in case you have a reason to use a different symmetry number we print 
out the resulting rotational entropy values for sn=1,12 :
 --------------------------------------------------------
|  sn= 1 | S(rot)=       0.01211391 Eh      7.60 kcal/mol|
|  sn= 2 | S(rot)=       0.01145945 Eh      7.19 kcal/mol|
|  sn= 3 | S(rot)=       0.01107662 Eh      6.95 kcal/mol|
|  sn= 4 | S(rot)=       0.01080500 Eh      6.78 kcal/mol|
|  sn= 5 | S(rot)=       0.01059431 Eh      6.65 kcal/mol|
|  sn= 6 | S(rot)=       0.01042216 Eh      6.54 kcal/mol|
|  sn= 7 | S(rot)=       0.01027662 Eh      6.45 kcal/mol|
|  sn= 8 | S(rot)=       0.01015054 Eh      6.37 kcal/mol|
|  sn= 9 | S(rot)=       0.01003933 Eh      6.30 kcal/mol|
|  sn=10 | S(rot)=       0.00993985 Eh      6.24 kcal/mol|
|  sn=11 | S(rot)=       0.00984986 Eh      6.18 kcal/mol|
|  sn=12 | S(rot)=       0.00976771 Eh      6.13 kcal/mol|
 --------------------------------------------------------


-------------------
GIBBS FREE ENERGY
-------------------

The Gibbs free energy is G = H - T*S

Total enthalpy                    ...   -351.80750068 Eh 
Total entropy correction          ...     -0.03471474 Eh    -21.78 kcal/mol
-----------------------------------------------------------------------
Final Gibbs free energy         ...   -351.84221542 Eh

For completeness - the Gibbs free energy minus the electronic energy
G-E(el)                           ...      0.01750687 Eh     10.99 kcal/mol



Timings for individual modules:

Sum of individual times         ...     2808.857 sec (=  46.814 min)
GTO integral calculation        ...       15.987 sec (=   0.266 min)   0.6 %
SCF iterations                  ...      347.139 sec (=   5.786 min)  12.4 %
MP2 module                      ...      750.814 sec (=  12.514 min)  26.7 %
Geometry relaxation             ...        1.844 sec (=   0.031 min)   0.1 %
Numerical frequency calculation ...     1693.073 sec (=  28.218 min)  60.3 %
                             ****ORCA TERMINATED NORMALLY****
TOTAL RUN TIME: 0 days 0 hours 46 minutes 44 seconds 101 msec
