
                                 *****************
                                 * O   R   C   A *
                                 *****************

                                            #,                                       
                                            ###                                      
                                            ####                                     
                                            #####                                    
                                            ######                                   
                                           ########,                                 
                                     ,,################,,,,,                         
                               ,,#################################,,                 
                          ,,##########################################,,             
                       ,#########################################, ''#####,          
                    ,#############################################,,   '####,        
                  ,##################################################,,,,####,       
                ,###########''''           ''''###############################       
              ,#####''   ,,,,##########,,,,          '''####'''          '####       
            ,##' ,,,,###########################,,,                        '##       
           ' ,,###''''                  '''############,,,                           
         ,,##''                                '''############,,,,        ,,,,,,###''
      ,#''                                            '''#######################'''  
     '                                                          ''''####''''         
             ,#######,   #######,   ,#######,      ##                                
            ,#'     '#,  ##    ##  ,#'     '#,    #''#        ######   ,####,        
            ##       ##  ##   ,#'  ##            #'  '#       #        #'  '#        
            ##       ##  #######   ##           ,######,      #####,   #    #        
            '#,     ,#'  ##    ##  '#,     ,#' ,#      #,         ##   #,  ,#        
             '#######'   ##     ##  '#######'  #'      '#     #####' # '####'        



                  #######################################################
                  #                        -***-                        #
                  #          Department of theory and spectroscopy      #
                  #    Directorship and core code : Frank Neese         #
                  #        Max Planck Institute fuer Kohlenforschung    #
                  #                Kaiser Wilhelm Platz 1               #
                  #                 D-45470 Muelheim/Ruhr               #
                  #                      Germany                        #
                  #                                                     #
                  #                  All rights reserved                #
                  #                        -***-                        #
                  #######################################################


                         Program Version 5.0.1 -  RELEASE  -


 With contributions from (in alphabetic order):
   Daniel Aravena         : Magnetic Suceptibility
   Michael Atanasov       : Ab Initio Ligand Field Theory (pilot matlab implementation)
   Alexander A. Auer      : GIAO ZORA, VPT2 properties, NMR spectrum
   Ute Becker             : Parallelization
   Giovanni Bistoni       : ED, misc. LED, open-shell LED, HFLD
   Martin Brehm           : Molecular dynamics
   Dmytro Bykov           : SCF Hessian
   Vijay G. Chilkuri      : MRCI spin determinant printing, contributions to CSF-ICE
   Dipayan Datta          : RHF DLPNO-CCSD density
   Achintya Kumar Dutta   : EOM-CC, STEOM-CC
   Dmitry Ganyushin       : Spin-Orbit,Spin-Spin,Magnetic field MRCI
   Miquel Garcia          : C-PCM and meta-GGA Hessian, CC/C-PCM, Gaussian charge scheme
   Yang Guo               : DLPNO-NEVPT2, F12-NEVPT2, CIM, IAO-localization
   Andreas Hansen         : Spin unrestricted coupled pair/coupled cluster methods
   Benjamin Helmich-Paris : MC-RPA, TRAH-SCF, COSX integrals
   Lee Huntington         : MR-EOM, pCC
   Robert Izsak           : Overlap fitted RIJCOSX, COSX-SCS-MP3, EOM
   Marcus Kettner         : VPT2
   Christian Kollmar      : KDIIS, OOCD, Brueckner-CCSD(T), CCSD density, CASPT2, CASPT2-K
   Simone Kossmann        : Meta GGA functionals, TD-DFT gradient, OOMP2, MP2 Hessian
   Martin Krupicka        : Initial AUTO-CI
   Lucas Lang             : DCDCAS
   Marvin Lechner         : AUTO-CI (C++ implementation), FIC-MRCC
   Dagmar Lenk            : GEPOL surface, SMD
   Dimitrios Liakos       : Extrapolation schemes; Compound Job, initial MDCI parallelization
   Dimitrios Manganas     : Further ROCIS development; embedding schemes
   Dimitrios Pantazis     : SARC Basis sets
   Anastasios Papadopoulos: AUTO-CI, single reference methods and gradients
   Taras Petrenko         : DFT Hessian,TD-DFT gradient, ASA, ECA, R-Raman, ABS, FL, XAS/XES, NRVS
   Peter Pinski           : DLPNO-MP2, DLPNO-MP2 Gradient
   Christoph Reimann      : Effective Core Potentials
   Marius Retegan         : Local ZFS, SOC
   Christoph Riplinger    : Optimizer, TS searches, QM/MM, DLPNO-CCSD(T), (RO)-DLPNO pert. Triples
   Tobias Risthaus        : Range-separated hybrids, TD-DFT gradient, RPA, STAB
   Michael Roemelt        : Original ROCIS implementation
   Masaaki Saitow         : Open-shell DLPNO-CCSD energy and density
   Barbara Sandhoefer     : DKH picture change effects
   Avijit Sen             : IP-ROCIS
   Kantharuban Sivalingam : CASSCF convergence, NEVPT2, FIC-MRCI
   Bernardo de Souza      : ESD, SOC TD-DFT
   Georgi Stoychev        : AutoAux, RI-MP2 NMR, DLPNO-MP2 response
   Willem Van den Heuvel  : Paramagnetic NMR
   Boris Wezisla          : Elementary symmetry handling
   Frank Wennmohs         : Technical directorship


 We gratefully acknowledge several colleagues who have allowed us to
 interface, adapt or use parts of their codes:
   Stefan Grimme, W. Hujo, H. Kruse, P. Pracht,  : VdW corrections, initial TS optimization,
                  C. Bannwarth, S. Ehlert          DFT functionals, gCP, sTDA/sTD-DF
   Ed Valeev, F. Pavosevic, A. Kumar             : LibInt (2-el integral package), F12 methods
   Garnet Chan, S. Sharma, J. Yang, R. Olivares  : DMRG
   Ulf Ekstrom                                   : XCFun DFT Library
   Mihaly Kallay                                 : mrcc  (arbitrary order and MRCC methods)
   Jiri Pittner, Ondrej Demel                    : Mk-CCSD
   Frank Weinhold                                : gennbo (NPA and NBO analysis)
   Christopher J. Cramer and Donald G. Truhlar   : smd solvation model
   Lars Goerigk                                  : TD-DFT with DH, B97 family of functionals
   V. Asgeirsson, H. Jonsson                     : NEB implementation
   FAccTs GmbH                                   : IRC, NEB, NEB-TS, DLPNO-Multilevel, CI-OPT
                                                   MM, QMMM, 2- and 3-layer-ONIOM, Crystal-QMMM,
                                                   LR-CPCM, SF, NACMEs, symmetry and pop. for TD-DFT,
                                                   nearIR, NL-DFT gradient (VV10), updates on ESD,
                                                   ML-optimized integration grids
   S Lehtola, MJT Oliveira, MAL Marques          : LibXC Library
   Liviu Ungur et al                             : ANISO software


 Your calculation uses the libint2 library for the computation of 2-el integrals
 For citations please refer to: http://libint.valeyev.net

 Your ORCA version has been built with support for libXC version: 5.1.0
 For citations please refer to: https://tddft.org/programs/libxc/

 This ORCA versions uses:
   CBLAS   interface :  Fast vector & matrix operations
   LAPACKE interface :  Fast linear algebra routines
   SCALAPACK package :  Parallel linear algebra routines
   Shared memory     :  Shared parallel matrices
   BLAS/LAPACK       :  OpenBLAS 0.3.15  USE64BITINT DYNAMIC_ARCH NO_AFFINITY Zen SINGLE_THREADED
        Core in use  :  Zen
   Copyright (c) 2011-2014, The OpenBLAS Project




***************************************
The coordinates will be read from file: input.xyz
***************************************


================================================================================

----- Orbital basis set information -----
Your calculation utilizes the basis: 6-31G(d)
   H-He, Li-Ne : W. J. Hehre, R. Ditchfield and J.A. Pople, J. Chem. Phys. 56, 2257 (1972).
                 Note: He and Ne are unpublished basis sets taken from the Gaussian program.
                 Note: Li and B from J. D. Dill and J. A. Pople, J. Chem. Phys. 62, 2921 (1975).
   Na - Ar     : M. M. Francl, W. J. Pietro, W. J. Hehre, J. S. Binkley, M. S. Gordon, 
                 D. J. DeFrees and J. A. Pople, J. Chem. Phys. 77, 3654 (1982).
   K - Zn      : V. A. Rassolov, J. A. Pople, M. A. Ratner, and T. L. Windus, J. Chem. Phys. 109, 1223 (1998).

================================================================================
                                        WARNINGS
                       Please study these warnings very carefully!
================================================================================


WARNING: Geometry Optimization
  ===> : Switching off AutoStart
         For restart on a previous wavefunction, please use MOREAD

WARNING: Post HF methods need fully converged wavefunctions
  ===> : Setting SCFConvForced true
         You can overwrite this default with %scf ConvForced false 


INFO   : the flag for use of the SHARK integral package has been found!

================================================================================
                                       INPUT FILE
================================================================================
NAME = input.orc
|  1> ! MP2 UHF 6-31G(d) OPTTS NumFreq NoFrozenCore VERYTIGHTSCF VERYTIGHTOPT
|  2> 
|  3> * XYZfile 0 2 input.xyz
|  4> 
|  5>                          ****END OF INPUT****
================================================================================

                       *****************************
                       * Geometry Optimization Run *
                       *****************************

Geometry optimization settings:
Update method            Update   .... Bofill
Choice of coordinates    CoordSys .... Z-matrix Internals
Initial Hessian          InHess   .... Almoef's Model

Convergence Tolerances:
Energy Change            TolE     ....  2.0000e-07 Eh
Max. Gradient            TolMAXG  ....  3.0000e-05 Eh/bohr
RMS Gradient             TolRMSG  ....  8.0000e-06 Eh/bohr
Max. Displacement        TolMAXD  ....  2.0000e-04 bohr
RMS Displacement         TolRMSD  ....  1.0000e-04 bohr
Strict Convergence                ....  False
------------------------------------------------------------------------------
                        ORCA OPTIMIZATION COORDINATE SETUP
------------------------------------------------------------------------------

The optimization will be done in new redundant internal coordinates
Making redundant internal coordinates   ...  (new redundants) done
Following TS mode number                ...     0
Evaluating the initial hessian          ...  (Almloef) done
Evaluating the coordinates              ...  done
Calculating the B-matrix                .... done
Calculating the G-matrix                .... done
Diagonalizing the G-matrix              .... done
The first mode is                       ....   17
The number of degrees of freedom        ....   18

    -----------------------------------------------------------------
                    Redundant Internal Coordinates


    -----------------------------------------------------------------
         Definition                    Initial Value    Approx d2E/dq
    -----------------------------------------------------------------
      1. B(C   1,C   0)                  1.5140         0.396191   
      2. B(F   2,C   1)                  1.3790         0.541398   
      3. B(O   3,C   1)                  1.2090         1.088051   
      4. B(H   4,C   0)                  1.0909         0.358870   
      5. B(H   5,C   0)                  1.0901         0.359981   
      6. B(H   6,C   0)                  1.0890         0.361425   
      7. B(H   7,C   1)                  1.4920         0.082221   
      8. B(H   7,F   2)                  1.8115         0.021159   
      9. A(H   4,C   0,H   5)          109.6487         0.290668   
     10. A(H   4,C   0,H   6)          108.9825         0.290851   
     11. A(C   1,C   0,H   4)          108.9100         0.327286   
     12. A(C   1,C   0,H   6)          108.8828         0.327669   
     13. A(C   1,C   0,H   5)          110.3719         0.327452   
     14. A(H   5,C   0,H   6)          110.0149         0.290992   
     15. A(F   2,C   1,O   3)          138.6892         0.460751   
     16. A(O   3,C   1,H   7)          114.7133         0.301799   
     17. A(C   0,C   1,F   2)           99.4069         0.387220   
     18. A(F   2,C   1,H   7)           78.1336         0.269687   
     19. A(C   0,C   1,H   7)          112.2532         0.259708   
     20. A(C   0,C   1,O   3)          109.7270         0.440220   
     21. A(C   1,F   2,H   7)           53.7103         0.219298   
     22. A(C   1,H   7,F   2)           48.1561         0.163585   
     23. D(F   2,C   1,C   0,H   5)    129.7993         0.012463   
     24. D(F   2,C   1,C   0,H   6)      8.9434         0.012463   
     25. D(O   3,C   1,C   0,H   4)     40.4775         0.012463   
     26. D(O   3,C   1,C   0,H   6)    159.2000         0.012463   
     27. D(F   2,C   1,C   0,H   4)   -109.7791         0.012463   
     28. D(H   7,C   1,C   0,H   4)    169.2780         0.012463   
     29. D(H   7,C   1,C   0,H   5)     48.8564         0.012463   
     30. D(H   7,C   1,C   0,H   6)    -71.9995         0.012463   
     31. D(O   3,C   1,C   0,H   5)    -79.9441         0.012463   
     32. D(H   7,F   2,C   1,O   3)    114.0829         0.025884   
     33. D(H   7,F   2,C   1,C   0)   -110.9427         0.025884   
     34. D(F   2,H   7,C   1,O   3)   -138.4368         0.005420   
     35. D(F   2,H   7,C   1,C   0)     95.4212         0.005420   
    -----------------------------------------------------------------

Number of atoms                         .... 8
Number of degrees of freedom            .... 35

         *************************************************************
         *                GEOMETRY OPTIMIZATION CYCLE   1            *
         *************************************************************
---------------------------------
CARTESIAN COORDINATES (ANGSTROEM)
---------------------------------
  C      0.940927    0.183718   -0.119939
  C      0.424634    0.632200    1.230802
  F      1.545855    1.287645    1.694372
  O     -0.770403    0.806268    1.173637
  H      0.434524    0.754796   -0.899398
  H      0.752503   -0.880251   -0.264033
  H      2.010176    0.383362   -0.172563
  H      0.871897   -0.267521    2.333824

----------------------------
CARTESIAN COORDINATES (A.U.)
----------------------------
  NO LB      ZA    FRAG     MASS         X           Y           Z
   0 C     6.0000    0    12.011    1.778094    0.347176   -0.226652
   1 C     6.0000    0    12.011    0.802442    1.194685    2.325878
   2 F     9.0000    0    18.998    2.921242    2.433295    3.201899
   3 O     8.0000    0    15.999   -1.455851    1.523626    2.217853
   4 H     1.0000    0     1.008    0.821131    1.426358   -1.699616
   5 H     1.0000    0     1.008    1.422024   -1.663434   -0.498951
   6 H     1.0000    0     1.008    3.798682    0.724449   -0.326097
   7 H     1.0000    0     1.008    1.647647   -0.505542    4.410288

--------------------------------
INTERNAL COORDINATES (ANGSTROEM)
--------------------------------
 C      0   0   0     0.000000000000     0.00000000     0.00000000
 C      1   0   0     1.514000000479     0.00000000     0.00000000
 F      2   1   0     1.379000000309    99.40686472     0.00000000
 O      2   1   3     1.208999999726   109.72703058   150.25662081
 H      1   2   3     1.090931636699   108.90995174   250.22091620
 H      1   2   3     1.090090151035   110.37191437   129.79927311
 H      1   2   3     1.088999999855   108.88283587     8.94337918
 H      2   1   3     1.492046023316   112.25321789   279.05708657

---------------------------
INTERNAL COORDINATES (A.U.)
---------------------------
 C      0   0   0     0.000000000000     0.00000000     0.00000000
 C      1   0   0     2.861045367662     0.00000000     0.00000000
 F      2   1   0     2.605932339261    99.40686472     0.00000000
 O      2   1   3     2.284678895393   109.72703058   150.25662081
 H      1   2   3     2.061562024191   108.90995174   250.22091620
 H      1   2   3     2.059971846742   110.37191437   129.79927311
 H      1   2   3     2.057911759567   108.88283587     8.94337918
 H      2   1   3     2.819558363273   112.25321789   279.05708657

---------------------
BASIS SET INFORMATION
---------------------
There are 4 groups of distinct atoms

 Group   1 Type C   : 10s4p1d contracted to 3s2p1d pattern {631/31/1}
 Group   2 Type F   : 10s4p1d contracted to 3s2p1d pattern {631/31/1}
 Group   3 Type O   : 10s4p1d contracted to 3s2p1d pattern {631/31/1}
 Group   4 Type H   : 4s contracted to 2s pattern {31}

Atom   0C    basis set group =>   1
Atom   1C    basis set group =>   1
Atom   2F    basis set group =>   2
Atom   3O    basis set group =>   3
Atom   4H    basis set group =>   4
Atom   5H    basis set group =>   4
Atom   6H    basis set group =>   4
Atom   7H    basis set group =>   4
------------------------------------------------------------------------------
                           ORCA GTO INTEGRAL CALCULATION
------------------------------------------------------------------------------
------------------------------------------------------------------------------
                   ___                                                        
                  /   \      - P O W E R E D   B Y -                         
                 /     \                                                     
                 |  |  |   _    _      __       _____    __    __             
                 |  |  |  | |  | |    /  \     |  _  \  |  |  /  |          
                  \  \/   | |  | |   /    \    | | | |  |  | /  /          
                 / \  \   | |__| |  /  /\  \   | |_| |  |  |/  /          
                |  |  |   |  __  | /  /__\  \  |    /   |      \           
                |  |  |   | |  | | |   __   |  |    \   |  |\   \          
                \     /   | |  | | |  |  |  |  | |\  \  |  | \   \       
                 \___/    |_|  |_| |__|  |__|  |_| \__\ |__|  \__/        
                                                                              
                      - O R C A' S   B I G   F R I E N D -                    
                                      &                                       
                       - I N T E G R A L  F E E D E R -                       
                                                                              
 v1 FN, 2020, v2 2021                                                         
------------------------------------------------------------------------------


Reading SHARK input file input.SHARKINP.tmp ... ok
----------------------
SHARK INTEGRAL PACKAGE
----------------------

Number of atoms                             ...      8
Number of basis functions                   ...     64
Number of shells                            ...     32
Maximum angular momentum                    ...      2
Integral batch strategy                     ... SHARK/LIBINT Hybrid
RI-J (if used) integral strategy            ... SPLIT-RIJ (Revised 2003 algorithm where possible)
Printlevel                                  ...      1
Contraction scheme used                     ... SEGMENTED contraction
Coulomb Range Separation                    ... NOT USED
Exchange Range Separation                   ... NOT USED
Finite Nucleus Model                        ... NOT USED
Auxiliary Coulomb fitting basis             ... NOT available
Auxiliary J/K fitting basis                 ... NOT available
Auxiliary Correlation fitting basis         ... NOT available
Auxiliary 'external' fitting basis          ... NOT available
Integral threshold                          ...     1.000000e-12
Primitive cut-off                           ...     1.000000e-14
Primitive pair pre-selection threshold      ...     1.000000e-14

Calculating pre-screening integrals         ... done (  0.1 sec) Dimension = 32
Organizing shell pair data                  ... done (  0.0 sec)
Shell pair information
Total number of shell pairs                 ...       528
Shell pairs after pre-screening             ...       525
Total number of primitive shell pairs       ...      3022
Primitive shell pairs kept                  ...      2384
          la=0 lb=0:    207 shell pairs
          la=1 lb=0:    160 shell pairs
          la=1 lb=1:     36 shell pairs
          la=2 lb=0:     80 shell pairs
          la=2 lb=1:     32 shell pairs
          la=2 lb=2:     10 shell pairs

Calculating one electron integrals          ... done (  0.0 sec)
Calculating Nuclear repulsion               ... done (  0.0 sec) ENN=    127.033282159132 Eh

SHARK setup successfully completed in   0.3 seconds

Maximum memory used throughout the entire GTOINT-calculation: 7.5 MB
-------------------------------------------------------------------------------
                                 ORCA SCF
-------------------------------------------------------------------------------

------------
SCF SETTINGS
------------
Hamiltonian:
 Ab initio Hamiltonian  Method          .... Hartree-Fock(GTOs)


General Settings:
 Integral files         IntName         .... input
 Hartree-Fock type      HFTyp           .... UHF
 Total Charge           Charge          ....    0
 Multiplicity           Mult            ....    2
 Number of Electrons    NEL             ....   33
 Basis Dimension        Dim             ....   64
 Nuclear Repulsion      ENuc            ....    127.0332821591 Eh

Convergence Acceleration:
 DIIS                   CNVDIIS         .... on
   Start iteration      DIISMaxIt       ....    12
   Startup error        DIISStart       ....  0.200000
   # of expansion vecs  DIISMaxEq       ....     5
   Bias factor          DIISBfac        ....   1.050
   Max. coefficient     DIISMaxC        ....  10.000
 Trust-Rad. Augm. Hess. CNVTRAH         .... auto
   Auto Start mean grad. ratio tolernc. ....  1.125000
   Auto Start start iteration           ....    20
   Auto Start num. interpolation iter.  ....    10
   Max. Number of Micro iterations      ....    16
   Max. Number of Macro iterations      .... Maxiter - #DIIS iter
   Number of Davidson start vectors     ....     2
   Converg. threshold I  (grad. norm)   ....   2.000e-06
   Converg. threshold II (energy diff.) ....   1.000e-09
   Grad. Scal. Fac. for Micro threshold ....   0.100
   Minimum threshold for Micro iter.    ....   0.010
   NR start threshold (gradient norm)   ....   0.001
   Initial trust radius                 ....   0.400
   Minimum AH scaling param. (alpha)    ....   1.000
   Maximum AH scaling param. (alpha)    .... 1000.000
   Orbital update algorithm             .... Taylor
   White noise on init. David. guess    .... on
   Maximum white noise                  ....   0.010
   Quad. conv. algorithm                .... NR
 SOSCF                  CNVSOSCF        .... off
 Level Shifting         CNVShift        .... on
   Level shift para.    LevelShift      ....    0.2500
   Turn off err/grad.   ShiftErr        ....    0.0010
 Zerner damping         CNVZerner       .... off
 Static damping         CNVDamp         .... on
   Fraction old density DampFac         ....    0.7000
   Max. Damping (<1)    DampMax         ....    0.9800
   Min. Damping (>=0)   DampMin         ....    0.0000
   Turn off err/grad.   DampErr         ....    0.1000
 Fernandez-Rico         CNVRico         .... off

SCF Procedure:
 Maximum # iterations   MaxIter         ....   125
 SCF integral mode      SCFMode         .... Direct
   Integral package                     .... SHARK and LIBINT hybrid scheme
 Reset frequency        DirectResetFreq ....    20
 Integral Threshold     Thresh          ....  1.000e-12 Eh
 Primitive CutOff       TCut            ....  1.000e-14 Eh

Convergence Tolerance:
 Convergence Check Mode ConvCheckMode   .... Total+1el-Energy
 Convergence forced     ConvForced      .... 1
 Energy Change          TolE            ....  1.000e-09 Eh
 1-El. energy change                    ....  1.000e-06 Eh
 DIIS Error             TolErr          ....  1.000e-08


Diagonalization of the overlap matrix:
Smallest eigenvalue                        ... 6.663e-03
Time for diagonalization                   ...    0.026 sec
Threshold for overlap eigenvalues          ... 1.000e-08
Number of eigenvalues below threshold      ... 0
Time for construction of square roots      ...    0.027 sec
Total time needed                          ...    0.053 sec

Time for model grid setup =    0.129 sec

------------------------------
INITIAL GUESS: MODEL POTENTIAL
------------------------------
Loading Hartree-Fock densities                     ... done
Calculating cut-offs                               ... done
Initializing the effective Hamiltonian             ... done
Setting up the integral package (SHARK)            ... done
Starting the Coulomb interaction                   ... done (   0.1 sec)
Reading the grid                                   ... done
Mapping shells                                     ... done
Starting the XC term evaluation                    ... done (   0.0 sec)
Transforming the Hamiltonian                       ... done (   0.0 sec)
Diagonalizing the Hamiltonian                      ... done (   0.0 sec)
Back transforming the eigenvectors                 ... done (   0.0 sec)
Now organizing SCF variables                       ... done
                      ------------------
                      INITIAL GUESS DONE (   0.3 sec)
                      ------------------
--------------
SCF ITERATIONS
--------------
ITER       Energy         Delta-E        Max-DP      RMS-DP      [F,P]     Damp
               ***  Starting incremental Fock matrix formation  ***
  0   -251.9799364141   0.000000000000 0.03843478  0.00177070  0.2545635 0.7000
  1   -252.0552000955  -0.075263681391 0.02878645  0.00135542  0.1435873 0.7000
                               ***Turning on DIIS***
  2   -252.0992372199  -0.044037124414 0.05950830  0.00296559  0.0768271 0.0000
  3   -251.8634681482   0.235769071654 0.02235645  0.00103549  0.0579229 0.0000
  4   -252.1967006048  -0.333232456620 0.01191596  0.00063562  0.0118472 0.0000
  5   -252.1991024196  -0.002401814759 0.01065721  0.00051454  0.0081440 0.0000
  6   -252.2045308026  -0.005428382970 0.01131917  0.00055138  0.0074006 0.0000
  7   -252.2122638683  -0.007733065781 0.00897881  0.00045231  0.0061473 0.0000
  8   -252.2177010925  -0.005437224161 0.01038670  0.00049059  0.0051544 0.0000
  9   -252.2139429552   0.003758137323 0.01251256  0.00055328  0.0049590 0.0000
 10   -252.2177145908  -0.003771635585 0.00932028  0.00038502  0.0040053 0.0000
 11   -252.2177241566  -0.000009565791 0.00933314  0.00039967  0.0027433 0.0000
 12   -252.2113799525   0.006344204043 0.00190560  0.00008589  0.0018478 0.0000
 13   -252.2145209790  -0.003141026460 0.00287361  0.00010266  0.0015655 0.0000
 14   -252.2132064800   0.001314498976 0.00210212  0.00007404  0.0015103 0.0000
 15   -252.2130443959   0.000162084104 0.00274081  0.00008064  0.0013648 0.0000
 16   -252.2132547348  -0.000210338896 0.00355358  0.00010136  0.0011172 0.0000
 17   -252.2132753679  -0.000020633084 0.00395134  0.00012010  0.0007507 0.0000
 18   -252.2131990920   0.000076275889 0.00273047  0.00007710  0.0004720 0.0000
 19   -252.2133008994  -0.000101807405 0.00163283  0.00004599  0.0002381 0.0000
               *** Restarting incremental Fock matrix formation ***
                                   *** Resetting DIIS ***
 20   -252.2131046250   0.000196274392 0.00025362  0.00001104  0.0001416 0.0000
 21   -252.2131715889  -0.000066963917 0.00022689  0.00001000  0.0001139 0.0000
 22   -252.2133871362  -0.000215547255 0.00047168  0.00001998  0.0000846 0.0000
 23   -252.2131830569   0.000204079291 0.00017886  0.00000555  0.0000575 0.0000
 24   -252.2131369445   0.000046112407 0.00012147  0.00000371  0.0000498 0.0000
 25   -252.2131122317   0.000024712746 0.00014623  0.00000494  0.0000434 0.0000
 26   -252.2131251429  -0.000012911170 0.00012973  0.00000388  0.0000341 0.0000
 27   -252.2131001963   0.000024946572 0.00007105  0.00000216  0.0000240 0.0000
 28   -252.2131119542  -0.000011757836 0.00006942  0.00000197  0.0000168 0.0000
 29   -252.2131078714   0.000004082753 0.00003886  0.00000113  0.0000089 0.0000
 30   -252.2131101212  -0.000002249795 0.00001640  0.00000054  0.0000042 0.0000
 31   -252.2131107687  -0.000000647533 0.00000775  0.00000030  0.0000023 0.0000
 32   -252.2131080123   0.000002756402 0.00000451  0.00000015  0.0000014 0.0000
 33   -252.2131084800  -0.000000467708 0.00000217  0.00000007  0.0000010 0.0000
 34   -252.2131072013   0.000001278782 0.00000161  0.00000007  0.0000009 0.0000
 35   -252.2131072650  -0.000000063763 0.00000178  0.00000006  0.0000008 0.0000
 36   -252.2131068635   0.000000401482 0.00000171  0.00000005  0.0000007 0.0000
 37   -252.2131069248  -0.000000061252 0.00000232  0.00000007  0.0000006 0.0000
 38   -252.2131069830  -0.000000058211 0.00000194  0.00000005  0.0000005 0.0000
 39   -252.2131071152  -0.000000132169 0.00000093  0.00000003  0.0000003 0.0000
               *** Restarting incremental Fock matrix formation ***
                                   *** Resetting DIIS ***
 40   -252.2131070507   0.000000064456 0.00000019  0.00000001  0.0000002 0.0000
 41   -252.2131070870  -0.000000036239 0.00000018  0.00000001  0.0000002 0.0000
 42   -252.2131072885  -0.000000201508 0.00000044  0.00000001  0.0000001 0.0000
 43   -252.2131071350   0.000000153447 0.00000021  0.00000001  0.0000001 0.0000
 44   -252.2131070727   0.000000062347 0.00000018  0.00000000  0.0000001 0.0000
 45   -252.2131070587   0.000000013974 0.00000024  0.00000001  0.0000000 0.0000
 46   -252.2131070527   0.000000005988 0.00000018  0.00000001  0.0000000 0.0000
                            ***DIIS convergence achieved***

               *****************************************************
               *                     SUCCESS                       *
               *           SCF CONVERGED AFTER  47 CYCLES          *
               *****************************************************


----------------
TOTAL SCF ENERGY
----------------

Total Energy       :         -252.21310704 Eh           -6863.06755 eV

Components:
Nuclear Repulsion  :          127.03328216 Eh            3456.75135 eV
Electronic Energy  :         -379.24638920 Eh          -10319.81890 eV
One Electron Energy:         -599.03996934 Eh          -16300.70628 eV
Two Electron Energy:          219.79358014 Eh            5980.88738 eV

Virial components:
Potential Energy   :         -504.50127775 Eh          -13728.17769 eV
Kinetic Energy     :          252.28817071 Eh            6865.11014 eV
Virial Ratio       :            1.99970247


---------------
SCF CONVERGENCE
---------------

  Last Energy change         ...    8.1139e-09  Tolerance :   1.0000e-09
  Last MAX-Density change    ...    7.5869e-08  Tolerance :   1.0000e-08
  Last RMS-Density change    ...    2.2723e-09  Tolerance :   1.0000e-09
  Last DIIS Error            ...    1.3021e-08  Tolerance :   1.0000e-08

             **** THE GBW FILE WAS UPDATED (input.gbw) ****
             **** DENSITY input.scfp WAS UPDATED ****
             **** ENERGY FILE WAS UPDATED (input.en.tmp) ****
----------------------
UHF SPIN CONTAMINATION
----------------------

Expectation value of <S**2>     :     0.897528
Ideal value S*(S+1) for S=0.5   :     0.750000
Deviation                       :     0.147528

             **** THE GBW FILE WAS UPDATED (input.gbw) ****
             **** DENSITY input.scfp WAS UPDATED ****
----------------
ORBITAL ENERGIES
----------------
                 SPIN UP ORBITALS
  NO   OCC          E(Eh)            E(eV) 
   0   1.0000     -26.297379      -715.5881 
   1   1.0000     -20.655101      -562.0539 
   2   1.0000     -11.404063      -310.3203 
   3   1.0000     -11.232875      -305.6621 
   4   1.0000      -1.624711       -44.2106 
   5   1.0000      -1.494537       -40.6684 
   6   1.0000      -1.022409       -27.8212 
   7   1.0000      -0.845448       -23.0058 
   8   1.0000      -0.755872       -20.5683 
   9   1.0000      -0.746713       -20.3191 
  10   1.0000      -0.707066       -19.2402 
  11   1.0000      -0.670788       -18.2531 
  12   1.0000      -0.621124       -16.9016 
  13   1.0000      -0.569207       -15.4889 
  14   1.0000      -0.544436       -14.8149 
  15   1.0000      -0.498850       -13.5744 
  16   1.0000      -0.462802       -12.5935 
  17   0.0000       0.186292         5.0693 
  18   0.0000       0.261667         7.1203 
  19   0.0000       0.308011         8.3814 
  20   0.0000       0.314300         8.5525 
  21   0.0000       0.350875         9.5478 
  22   0.0000       0.404373        11.0036 
  23   0.0000       0.487305        13.2603 
  24   0.0000       0.721598        19.6357 
  25   0.0000       0.758006        20.6264 
  26   0.0000       0.774873        21.0854 
  27   0.0000       0.820025        22.3140 
  28   0.0000       0.855666        23.2839 
  29   0.0000       0.872679        23.7468 
  30   0.0000       0.957668        26.0595 
  31   0.0000       1.065900        29.0046 
  32   0.0000       1.087014        29.5792 
  33   0.0000       1.151744        31.3405 
  34   0.0000       1.180122        32.1128 
  35   0.0000       1.209964        32.9248 
  36   0.0000       1.256244        34.1841 
  37   0.0000       1.279925        34.8285 
  38   0.0000       1.446387        39.3582 
  39   0.0000       1.507197        41.0129 
  40   0.0000       1.565841        42.6087 
  41   0.0000       1.584053        43.1043 
  42   0.0000       1.688692        45.9517 
  43   0.0000       1.735972        47.2382 
  44   0.0000       1.899706        51.6936 
  45   0.0000       1.925299        52.3900 
  46   0.0000       2.001027        54.4507 
  47   0.0000       2.030542        55.2539 
  48   0.0000       2.113430        57.5093 
  49   0.0000       2.128373        57.9160 
  50   0.0000       2.194978        59.7284 
  51   0.0000       2.208357        60.0924 
  52   0.0000       2.319863        63.1267 
  53   0.0000       2.402776        65.3829 
  54   0.0000       2.433945        66.2310 
  55   0.0000       2.514120        68.4127 
  56   0.0000       2.565083        69.7995 
  57   0.0000       2.674838        72.7860 
  58   0.0000       2.838768        77.2468 
  59   0.0000       2.970033        80.8187 
  60   0.0000       3.097139        84.2774 
  61   0.0000       3.110811        84.6495 
  62   0.0000       3.258673        88.6730 
  63   0.0000       3.573614        97.2430 

                 SPIN DOWN ORBITALS
  NO   OCC          E(Eh)            E(eV) 
   0   1.0000     -26.295780      -715.5445 
   1   1.0000     -20.624316      -561.2162 
   2   1.0000     -11.417387      -310.6829 
   3   1.0000     -11.229263      -305.5638 
   4   1.0000      -1.621361       -44.1195 
   5   1.0000      -1.419819       -38.6352 
   6   1.0000      -1.008971       -27.4555 
   7   1.0000      -0.837773       -22.7970 
   8   1.0000      -0.726742       -19.7756 
   9   1.0000      -0.719286       -19.5728 
  10   1.0000      -0.701597       -19.0914 
  11   1.0000      -0.614206       -16.7134 
  12   1.0000      -0.591117       -16.0851 
  13   1.0000      -0.541962       -14.7475 
  14   1.0000      -0.504436       -13.7264 
  15   1.0000      -0.445414       -12.1203 
  16   0.0000       0.036480         0.9927 
  17   0.0000       0.213726         5.8158 
  18   0.0000       0.266814         7.2604 
  19   0.0000       0.310294         8.4435 
  20   0.0000       0.320246         8.7143 
  21   0.0000       0.350781         9.5452 
  22   0.0000       0.407980        11.1017 
  23   0.0000       0.496897        13.5213 
  24   0.0000       0.720323        19.6010 
  25   0.0000       0.766617        20.8607 
  26   0.0000       0.779417        21.2090 
  27   0.0000       0.836199        22.7541 
  28   0.0000       0.852422        23.1956 
  29   0.0000       0.899924        24.4882 
  30   0.0000       0.989206        26.9177 
  31   0.0000       1.083493        29.4833 
  32   0.0000       1.103038        30.0152 
  33   0.0000       1.161894        31.6167 
  34   0.0000       1.184829        32.2408 
  35   0.0000       1.226257        33.3681 
  36   0.0000       1.283734        34.9322 
  37   0.0000       1.349134        36.7118 
  38   0.0000       1.454109        39.5683 
  39   0.0000       1.513771        41.1918 
  40   0.0000       1.576770        42.9061 
  41   0.0000       1.584676        43.1212 
  42   0.0000       1.688790        45.9543 
  43   0.0000       1.751459        47.6596 
  44   0.0000       1.904464        51.8231 
  45   0.0000       1.941366        52.8273 
  46   0.0000       2.037277        55.4371 
  47   0.0000       2.075531        56.4781 
  48   0.0000       2.118139        57.6375 
  49   0.0000       2.131364        57.9974 
  50   0.0000       2.193899        59.6990 
  51   0.0000       2.237357        60.8816 
  52   0.0000       2.324917        63.2642 
  53   0.0000       2.410784        65.6008 
  54   0.0000       2.431700        66.1699 
  55   0.0000       2.522546        68.6420 
  56   0.0000       2.568477        69.8918 
  57   0.0000       2.678805        72.8940 
  58   0.0000       2.834335        77.1262 
  59   0.0000       2.967903        80.7607 
  60   0.0000       3.102986        84.4365 
  61   0.0000       3.119990        84.8992 
  62   0.0000       3.268511        88.9407 
  63   0.0000       3.572427        97.2107 

                    ********************************
                    * MULLIKEN POPULATION ANALYSIS *
                    ********************************

--------------------------------------------
MULLIKEN ATOMIC CHARGES AND SPIN POPULATIONS
--------------------------------------------
   0 C :   -0.554372    0.103637
   1 C :    0.613088   -0.497515
   2 F :   -0.447061    0.014118
   3 O :   -0.319737    0.727346
   4 H :    0.197094   -0.012894
   5 H :    0.190798   -0.011574
   6 H :    0.202877    0.000815
   7 H :    0.117314    0.676067
Sum of atomic charges         :   -0.0000000
Sum of atomic spin populations:    1.0000000

-----------------------------------------------------
MULLIKEN REDUCED ORBITAL CHARGES AND SPIN POPULATIONS
-----------------------------------------------------
CHARGE
  0 C s       :     3.345375  s :     3.345375
      pz      :     0.944361  p :     3.162423
      px      :     1.101465
      py      :     1.116597
      dz2     :     0.012149  d :     0.046574
      dxz     :     0.007885
      dyz     :     0.007657
      dx2y2   :     0.013908
      dxy     :     0.004975
  1 C s       :     3.042693  s :     3.042693
      pz      :     0.864322  p :     2.205943
      px      :     0.619610
      py      :     0.722012
      dz2     :     0.022420  d :     0.138275
      dxz     :     0.035191
      dyz     :     0.010669
      dx2y2   :     0.030296
      dxy     :     0.039699
  2 F s       :     3.983860  s :     3.983860
      pz      :     1.923057  p :     5.445114
      px      :     1.643117
      py      :     1.878940
      dz2     :     0.002501  d :     0.018087
      dxz     :     0.003822
      dyz     :     0.001863
      dx2y2   :     0.004674
      dxy     :     0.005226
  3 O s       :     3.886581  s :     3.886581
      pz      :     1.386056  p :     4.400608
      px      :     1.389324
      py      :     1.625228
      dz2     :     0.003413  d :     0.032547
      dxz     :     0.009800
      dyz     :     0.000675
      dx2y2   :     0.009601
      dxy     :     0.009059
  4 H s       :     0.802906  s :     0.802906
  5 H s       :     0.809202  s :     0.809202
  6 H s       :     0.797123  s :     0.797123
  7 H s       :     0.882686  s :     0.882686

SPIN
  0 C s       :     0.017315  s :     0.017315
      pz      :     0.050797  p :     0.088018
      px      :     0.016866
      py      :     0.020356
      dz2     :    -0.000618  d :    -0.001696
      dxz     :    -0.000087
      dyz     :    -0.000657
      dx2y2   :    -0.000280
      dxy     :    -0.000054
  1 C s       :    -0.111043  s :    -0.111043
      pz      :    -0.170895  p :    -0.397741
      px      :    -0.033982
      py      :    -0.192865
      dz2     :     0.001482  d :     0.011269
      dxz     :     0.003600
      dyz     :     0.004420
      dx2y2   :     0.001085
      dxy     :     0.000681
  2 F s       :    -0.000288  s :    -0.000288
      pz      :     0.003856  p :     0.014156
      px      :     0.005637
      py      :     0.004662
      dz2     :     0.000043  d :     0.000250
      dxz     :    -0.000045
      dyz     :     0.000322
      dx2y2   :    -0.000042
      dxy     :    -0.000027
  3 O s       :     0.028984  s :     0.028984
      pz      :     0.502640  p :     0.702761
      px      :     0.023990
      py      :     0.176132
      dz2     :     0.000015  d :    -0.004399
      dxz     :    -0.002727
      dyz     :    -0.000236
      dx2y2   :    -0.000428
      dxy     :    -0.001023
  4 H s       :    -0.012894  s :    -0.012894
  5 H s       :    -0.011574  s :    -0.011574
  6 H s       :     0.000815  s :     0.000815
  7 H s       :     0.676067  s :     0.676067


                     *******************************
                     * LOEWDIN POPULATION ANALYSIS *
                     *******************************

-------------------------------------------
LOEWDIN ATOMIC CHARGES AND SPIN POPULATIONS
-------------------------------------------
   0 C :   -0.374590    0.072060
   1 C :    0.138798   -0.301052
   2 F :   -0.228541    0.016791
   3 O :   -0.080002    0.654884
   4 H :    0.143252   -0.010762
   5 H :    0.142472   -0.008967
   6 H :    0.141965   -0.000206
   7 H :    0.116646    0.577252

----------------------------------------------------
LOEWDIN REDUCED ORBITAL CHARGES AND SPIN POPULATIONS
----------------------------------------------------
CHARGE
  0 C s       :     2.988056  s :     2.988056
      pz      :     1.049865  p :     3.309407
      px      :     1.123717
      py      :     1.135825
      dz2     :     0.021728  d :     0.077126
      dxz     :     0.013738
      dyz     :     0.013863
      dx2y2   :     0.021134
      dxy     :     0.006663
  1 C s       :     2.862492  s :     2.862492
      pz      :     0.955755  p :     2.676114
      px      :     0.922428
      py      :     0.797931
      dz2     :     0.050808  d :     0.322596
      dxz     :     0.080639
      dyz     :     0.022651
      dx2y2   :     0.078546
      dxy     :     0.089952
  2 F s       :     3.760253  s :     3.760253
      pz      :     1.908548  p :     5.432226
      px      :     1.645747
      py      :     1.877931
      dz2     :     0.004721  d :     0.036062
      dxz     :     0.007986
      dyz     :     0.004801
      dx2y2   :     0.006805
      dxy     :     0.011749
  3 O s       :     3.571015  s :     3.571015
      pz      :     1.367277  p :     4.448034
      px      :     1.486487
      py      :     1.594270
      dz2     :     0.007550  d :     0.060953
      dxz     :     0.017388
      dyz     :     0.001091
      dx2y2   :     0.020371
      dxy     :     0.014553
  4 H s       :     0.856748  s :     0.856748
  5 H s       :     0.857528  s :     0.857528
  6 H s       :     0.858035  s :     0.858035
  7 H s       :     0.883354  s :     0.883354

SPIN
  0 C s       :     0.014964  s :     0.014964
      pz      :     0.037159  p :     0.062306
      px      :     0.012807
      py      :     0.012340
      dz2     :    -0.001974  d :    -0.005210
      dxz     :    -0.000555
      dyz     :    -0.001981
      dx2y2   :    -0.000408
      dxy     :    -0.000292
  1 C s       :    -0.049961  s :    -0.049961
      pz      :    -0.102041  p :    -0.278224
      px      :    -0.022280
      py      :    -0.153904
      dz2     :     0.002611  d :     0.027134
      dxz     :     0.010157
      dyz     :     0.009217
      dx2y2   :     0.002180
      dxy     :     0.002968
  2 F s       :     0.002142  s :     0.002142
      pz      :     0.005380  p :     0.016658
      px      :     0.003641
      py      :     0.007637
      dz2     :    -0.000418  d :    -0.002009
      dxz     :    -0.000575
      dyz     :     0.000710
      dx2y2   :    -0.000126
      dxy     :    -0.001600
  3 O s       :     0.013498  s :     0.013498
      pz      :     0.476834  p :     0.651501
      px      :     0.013710
      py      :     0.160957
      dz2     :     0.000003  d :    -0.010115
      dxz     :    -0.004621
      dyz     :    -0.000227
      dx2y2   :    -0.000966
      dxy     :    -0.004304
  4 H s       :    -0.010762  s :    -0.010762
  5 H s       :    -0.008967  s :    -0.008967
  6 H s       :    -0.000206  s :    -0.000206
  7 H s       :     0.577252  s :     0.577252


                      *****************************
                      * MAYER POPULATION ANALYSIS *
                      *****************************

  NA   - Mulliken gross atomic population
  ZA   - Total nuclear charge
  QA   - Mulliken gross atomic charge
  VA   - Mayer's total valence
  BVA  - Mayer's bonded valence
  FA   - Mayer's free valence

  ATOM       NA         ZA         QA         VA         BVA        FA
  0 C      6.5544     6.0000    -0.5544     3.7527     3.7450     0.0077
  1 C      5.3869     6.0000     0.6131     3.7202     3.5609     0.1593
  2 F      9.4471     9.0000    -0.4471     0.7700     0.7695     0.0005
  3 O      8.3197     8.0000    -0.3197     2.0243     1.5624     0.4619
  4 H      0.8029     1.0000     0.1971     0.9233     0.9231     0.0002
  5 H      0.8092     1.0000     0.1908     0.9273     0.9272     0.0001
  6 H      0.7971     1.0000     0.2029     0.9235     0.9235     0.0000
  7 H      0.8827     1.0000     0.1173     0.9610     0.5038     0.4572

  Mayer bond orders larger than 0.100000
B(  0-C ,  1-C ) :   0.9230 B(  0-C ,  4-H ) :   0.9457 B(  0-C ,  5-H ) :   0.9450 
B(  0-C ,  6-H ) :   0.9449 B(  1-C ,  2-F ) :   0.7313 B(  1-C ,  3-O ) :   1.4690 
B(  1-C ,  7-H ) :   0.4684 

-------
TIMINGS
-------

Total SCF time: 0 days 0 hours 0 min 16 sec 

Total time                  ....      16.330 sec
Sum of individual times     ....      15.403 sec  ( 94.3%)

Fock matrix formation       ....      14.302 sec  ( 87.6%)
Diagonalization             ....       0.355 sec  (  2.2%)
Density matrix formation    ....       0.003 sec  (  0.0%)
Population analysis         ....       0.074 sec  (  0.5%)
Initial guess               ....       0.166 sec  (  1.0%)
Orbital Transformation      ....       0.000 sec  (  0.0%)
Orbital Orthonormalization  ....       0.000 sec  (  0.0%)
DIIS solution               ....       0.375 sec  (  2.3%)

Maximum memory used throughout the entire SCF-calculation: 228.6 MB

------------------------------------------------------------------------------
                                ORCA  MP2 
------------------------------------------------------------------------------

MP2 will be done in the AO integral direct mode
The Q1-step will be done using symmetric double matrices
Dimension of the basis                    ...   64
Memory devoted for MP2                    ...  256 MB   
Memory needed for all in one shot         ...   18 MB
Number of MOs that can be treated together...  251      
MP2 density construction                  ... relaxed
The MP2 gradient is requested => amplitudes will be stored on disk
Total number of MOs              ...   17
Number of MOs treated per batch  ...   17 
Number of batches necessary      ...    1 
OPERATORS   0/  0 PASS   0
OPERATORS   0/  1 PASS   0
Total number of MOs              ...   17
Number of MOs treated per batch  ...   16 
Number of batches necessary      ...    1 
OPERATORS   1/  0 PASS   0
OPERATORS   1/  1 PASS   0

Correlation energy components
 E2 and T2 for alpha/alpha pairs :     -0.078715370 Eh
 E2 and T2 for beta/beta   pairs :     -0.080396947 Eh
 E2 and T2 for alpha/beta  pairs :     -0.432131176 Eh

-----------------------------------------------
 MP2 CORRELATION ENERGY   :     -0.591243493 Eh
-----------------------------------------------


---------------------
MP2 DENSITY FORMATION
---------------------

Completing the external part of the density      ... done
Storing the unrelaxed density                    ... done

Calculating G(D)                                 ... done
Completing the Lagrangian                        ... done
Solving the Z-vector equations                   ... 

------------------------------------------------------------------------------
                           ORCA CP-SCF CALCULATION
------------------------------------------------------------------------------

Input orbitals are from        ... input.gbw
Input Perturbation             ... input.pin.tmp
Wavefunction output            ... input.pout.tmp
Perturbation mode              ... Real perturbation (singlet)
Solver                         ... POPLE
Max. number of iterations      ... 128
Convergence tolerance          ... 3.000e-05
Integral handling              ... Direct
Number of perturbations        ... 1
Number of operators            ... 2
Orbital ranges used for CP-SCF:
 Operator 0:  Orbitals   0... 16  to  17... 63
 Operator 1:  Orbitals   0... 15  to  16... 63
Variables per perturbation     ... 1567
Memory available               ... 1017.7 MB
Memory needed per perturbation ...   3.2 MB
Perturbations treated per batch... 1
Number of batches              ... 1
     CP-SCF ITERATION   0:   1.2729e-01 (   0.2 sec)
     CP-SCF ITERATION   1:   8.7682e-02 (   0.2 sec)
     CP-SCF ITERATION   2:   3.4425e-02 (   0.2 sec)
     CP-SCF ITERATION   3:   2.3165e-02 (   0.2 sec)
     CP-SCF ITERATION   4:   1.3819e-02 (   0.2 sec)
     CP-SCF ITERATION   5:   1.1340e-02 (   0.2 sec)
     CP-SCF ITERATION   6:   7.7342e-03 (   0.2 sec)
     CP-SCF ITERATION   7:   6.3525e-03 (   0.2 sec)
     CP-SCF ITERATION   8:   2.7622e-03 (   0.2 sec)
     CP-SCF ITERATION   9:   1.2056e-03 (   0.2 sec)
     CP-SCF ITERATION  10:   4.7692e-04 (   0.2 sec)
     CP-SCF ITERATION  11:   1.9836e-04 (   0.2 sec)
     CP-SCF ITERATION  12:   8.2118e-05 (   0.2 sec)
     CP-SCF ITERATION  13:   2.6934e-05 (   0.2 sec)
                    *** THE CP-SCF HAS CONVERGED ***
                                                 ... done
Finalizing the relaxed density                   ... done
Transforming P to the AO basis                   ... done
Storing the relaxed density                      ... done

------------------------------------
ENERGY WEIGHTED DENSITY FINALIZATION
------------------------------------

Gathering the parts of the W-matrix              ...                                                                                                           done
Forming the Z-density                            ... done
Transforming Z to the AO basis                   ... done
Calculating G(Z)                                 ... done
Finalizing the W-matrix                          ...                                                                                                           done
Transforming W to the AO basis and storing       ... done

                *********************************************
                * UNRELAXED MP2 DENSITY POPULATION ANALYSIS *
                *********************************************

------------------------------------------------------------------------------
                           ORCA POPULATION ANALYSIS
------------------------------------------------------------------------------
Input electron density              ... input.pmp2ur
Input spin density                  ... input.rmp2ur
BaseName (.gbw .S,...)              ... input

                    ********************************
                    * MULLIKEN POPULATION ANALYSIS *
                    ********************************

------------------------------------------
MULLIKEN ATOMIC CHARGES AND SPIN DENSITIES
------------------------------------------
   0 C :   -0.559871    0.101628
   1 C :    0.591912   -0.481722
   2 F :   -0.434652    0.014983
   3 O :   -0.311893    0.716945
   4 H :    0.198976   -0.012601
   5 H :    0.192630   -0.011352
   6 H :    0.204476    0.000944
   7 H :    0.118423    0.671175
Sum of atomic charges       :   -0.0000000
Sum of atomic spin densities:    1.0000000

---------------------------------------------------
MULLIKEN REDUCED ORBITAL CHARGES AND SPIN DENSITIES
---------------------------------------------------
CHARGE
  0 C s       :     3.342274  s :     3.342274
      pz      :     0.942532  p :     3.155275
      px      :     1.098867
      py      :     1.113875
      dz2     :     0.015072  d :     0.062322
      dxz     :     0.011054
      dyz     :     0.010926
      dx2y2   :     0.016974
      dxy     :     0.008295
  1 C s       :     3.043322  s :     3.043322
      pz      :     0.862746  p :     2.215260
      px      :     0.624463
      py      :     0.728051
      dz2     :     0.024748  d :     0.149506
      dxz     :     0.037760
      dyz     :     0.013191
      dx2y2   :     0.032148
      dxy     :     0.041660
  2 F s       :     3.981733  s :     3.981733
      pz      :     1.913962  p :     5.415207
      px      :     1.631954
      py      :     1.869292
      dz2     :     0.006372  d :     0.037712
      dxz     :     0.007782
      dyz     :     0.005715
      dx2y2   :     0.008681
      dxy     :     0.009162
  3 O s       :     3.881273  s :     3.881273
      pz      :     1.383088  p :     4.378580
      px      :     1.380811
      py      :     1.614682
      dz2     :     0.007155  d :     0.052039
      dxz     :     0.013719
      dyz     :     0.004507
      dx2y2   :     0.013368
      dxy     :     0.013291
  4 H s       :     0.801024  s :     0.801024
  5 H s       :     0.807370  s :     0.807370
  6 H s       :     0.795524  s :     0.795524
  7 H s       :     0.881577  s :     0.881577

SPIN
  0 C s       :     0.016964  s :     0.016964
      pz      :     0.049573  p :     0.085933
      px      :     0.016598
      py      :     0.019762
      dz2     :    -0.000493  d :    -0.001269
      dxz     :     0.000009
      dyz     :    -0.000536
      dx2y2   :    -0.000232
      dxy     :    -0.000017
  1 C s       :    -0.108676  s :    -0.108676
      pz      :    -0.163832  p :    -0.382919
      px      :    -0.033222
      py      :    -0.185865
      dz2     :     0.001133  d :     0.009873
      dxz     :     0.003489
      dyz     :     0.004030
      dx2y2   :     0.000835
      dxy     :     0.000387
  2 F s       :    -0.000241  s :    -0.000241
      pz      :     0.004379  p :     0.014946
      px      :     0.005476
      py      :     0.005091
      dz2     :     0.000045  d :     0.000278
      dxz     :    -0.000035
      dyz     :     0.000330
      dx2y2   :    -0.000033
      dxy     :    -0.000031
  3 O s       :     0.030780  s :     0.030780
      pz      :     0.492870  p :     0.687225
      px      :     0.023023
      py      :     0.171332
      dz2     :     0.001003  d :    -0.001059
      dxz     :    -0.001766
      dyz     :     0.000653
      dx2y2   :    -0.000210
      dxy     :    -0.000740
  4 H s       :    -0.012601  s :    -0.012601
  5 H s       :    -0.011352  s :    -0.011352
  6 H s       :     0.000944  s :     0.000944
  7 H s       :     0.671175  s :     0.671175


                     *******************************
                     * LOEWDIN POPULATION ANALYSIS *
                     *******************************

-----------------------------------------
LOEWDIN ATOMIC CHARGES AND SPIN DENSITIES
-----------------------------------------
   0 C :   -0.383021    0.071225
   1 C :    0.122215   -0.288531
   2 F :   -0.217438    0.017909
   3 O :   -0.074892    0.645551
   4 H :    0.145987   -0.010478
   5 H :    0.145123   -0.008775
   6 H :    0.144489   -0.000100
   7 H :    0.117538    0.573198

--------------------------------------------------
LOEWDIN REDUCED ORBITAL CHARGES AND SPIN DENSITIES
--------------------------------------------------
CHARGE
  0 C s       :     2.988311  s :     2.988311
      pz      :     1.046133  p :     3.299633
      px      :     1.120805
      py      :     1.132696
      dz2     :     0.025206  d :     0.095077
      dxz     :     0.017330
      dyz     :     0.017480
      dx2y2   :     0.024763
      dxy     :     0.010298
  1 C s       :     2.863966  s :     2.863966
      pz      :     0.953106  p :     2.679090
      px      :     0.923422
      py      :     0.802561
      dz2     :     0.053506  d :     0.334729
      dxz     :     0.082890
      dyz     :     0.025426
      dx2y2   :     0.081243
      dxy     :     0.091665
  2 F s       :     3.758628  s :     3.758628
      pz      :     1.899057  p :     5.402459
      px      :     1.635328
      py      :     1.868074
      dz2     :     0.008677  d :     0.056350
      dxz     :     0.012101
      dyz     :     0.008670
      dx2y2   :     0.010977
      dxy     :     0.015924
  3 O s       :     3.567328  s :     3.567328
      pz      :     1.364172  p :     4.425326
      px      :     1.477148
      py      :     1.584006
      dz2     :     0.011710  d :     0.082239
      dxz     :     0.021375
      dyz     :     0.004940
      dx2y2   :     0.025254
      dxy     :     0.018961
  4 H s       :     0.854013  s :     0.854013
  5 H s       :     0.854877  s :     0.854877
  6 H s       :     0.855511  s :     0.855511
  7 H s       :     0.882462  s :     0.882462

SPIN
  0 C s       :     0.014918  s :     0.014918
      pz      :     0.036322  p :     0.060961
      px      :     0.012635
      py      :     0.012004
      dz2     :    -0.001802  d :    -0.004655
      dxz     :    -0.000446
      dyz     :    -0.001804
      dx2y2   :    -0.000358
      dxy     :    -0.000245
  1 C s       :    -0.048678  s :    -0.048678
      pz      :    -0.096287  p :    -0.265392
      px      :    -0.021429
      py      :    -0.147676
      dz2     :     0.002258  d :     0.025539
      dxz     :     0.009958
      dyz     :     0.008754
      dx2y2   :     0.001984
      dxy     :     0.002584
  2 F s       :     0.002130  s :     0.002130
      pz      :     0.005992  p :     0.017662
      px      :     0.003486
      py      :     0.008185
      dz2     :    -0.000400  d :    -0.001883
      dxz     :    -0.000543
      dyz     :     0.000725
      dx2y2   :    -0.000115
      dxy     :    -0.001550
  3 O s       :     0.015064  s :     0.015064
      pz      :     0.467466  p :     0.637120
      px      :     0.013031
      py      :     0.156623
      dz2     :     0.000990  d :    -0.006633
      dxz     :    -0.003630
      dyz     :     0.000657
      dx2y2   :    -0.000743
      dxy     :    -0.003907
  4 H s       :    -0.010478  s :    -0.010478
  5 H s       :    -0.008775  s :    -0.008775
  6 H s       :    -0.000100  s :    -0.000100
  7 H s       :     0.573198  s :     0.573198


                      *****************************
                      * MAYER POPULATION ANALYSIS *
                      *****************************

  NA   - Mulliken gross atomic population
  ZA   - Total nuclear charge
  QA   - Mulliken gross atomic charge
  VA   - Mayer's total valence
  BVA  - Mayer's bonded valence
  FA   - Mayer's free valence

  ATOM       NA         ZA         QA         VA         BVA        FA
  0 C      6.5599     6.0000    -0.5599     3.8480     3.5936     0.2544
  1 C      5.4081     6.0000     0.5919     3.7859     3.3715     0.4144
  2 F      9.4347     9.0000    -0.4347     1.0503     0.7210     0.3292
  3 O      8.3119     8.0000    -0.3119     2.2381     1.4666     0.7715
  4 H      0.8010     1.0000     0.1990     0.9256     0.8891     0.0365
  5 H      0.8074     1.0000     0.1926     0.9297     0.8928     0.0369
  6 H      0.7955     1.0000     0.2045     0.9259     0.8894     0.0364
  7 H      0.8816     1.0000     0.1184     0.9637     0.4805     0.4833

  Mayer bond orders larger than 0.100000
B(  0-C ,  1-C ) :   0.8754 B(  0-C ,  4-H ) :   0.9125 B(  0-C ,  5-H ) :   0.9114 
B(  0-C ,  6-H ) :   0.9116 B(  1-C ,  2-F ) :   0.6910 B(  1-C ,  3-O ) :   1.3871 
B(  1-C ,  7-H ) :   0.4497 


                *******************************************
                * RELAXED MP2 DENSITY POPULATION ANALYSIS *
                *******************************************

------------------------------------------------------------------------------
                           ORCA POPULATION ANALYSIS
------------------------------------------------------------------------------
Input electron density              ... input.pmp2re
Input spin density                  ... input.rmp2re
BaseName (.gbw .S,...)              ... input

                    ********************************
                    * MULLIKEN POPULATION ANALYSIS *
                    ********************************

------------------------------------------
MULLIKEN ATOMIC CHARGES AND SPIN DENSITIES
------------------------------------------
   0 C :   -0.555663    0.038528
   1 C :    0.519597   -0.066648
   2 F :   -0.347874    0.046153
   3 O :   -0.379498    0.330343
   4 H :    0.215525    0.003308
   5 H :    0.189763   -0.003546
   6 H :    0.189029    0.005086
   7 H :    0.169122    0.646776
Sum of atomic charges       :   -0.0000000
Sum of atomic spin densities:    1.0000000

---------------------------------------------------
MULLIKEN REDUCED ORBITAL CHARGES AND SPIN DENSITIES
---------------------------------------------------
CHARGE
  0 C s       :     3.317192  s :     3.317192
      pz      :     0.963118  p :     3.183803
      px      :     1.092819
      py      :     1.127865
      dz2     :     0.013483  d :     0.054668
      dxz     :     0.009623
      dyz     :     0.009165
      dx2y2   :     0.015027
      dxy     :     0.007370
  1 C s       :     3.065586  s :     3.065586
      pz      :     0.801458  p :     2.262972
      px      :     0.709350
      py      :     0.752164
      dz2     :     0.021851  d :     0.151845
      dxz     :     0.044710
      dyz     :     0.012657
      dx2y2   :     0.029725
      dxy     :     0.042902
  2 F s       :     3.970368  s :     3.970368
      pz      :     1.892166  p :     5.340453
      px      :     1.617484
      py      :     1.830802
      dz2     :     0.006421  d :     0.037053
      dxz     :     0.007493
      dyz     :     0.005827
      dx2y2   :     0.008217
      dxy     :     0.009095
  3 O s       :     3.850278  s :     3.850278
      pz      :     1.568082  p :     4.477938
      px      :     1.347185
      py      :     1.562671
      dz2     :     0.006512  d :     0.051281
      dxz     :     0.013874
      dyz     :     0.004124
      dx2y2   :     0.012299
      dxy     :     0.014471
  4 H s       :     0.784475  s :     0.784475
  5 H s       :     0.810237  s :     0.810237
  6 H s       :     0.810971  s :     0.810971
  7 H s       :     0.830878  s :     0.830878

SPIN
  0 C s       :     0.002884  s :     0.002884
      pz      :     0.023975  p :     0.035474
      px      :     0.007793
      py      :     0.003706
      dz2     :    -0.000278  d :     0.000171
      dxz     :     0.000186
      dyz     :     0.000233
      dx2y2   :    -0.000037
      dxy     :     0.000066
  1 C s       :    -0.007908  s :    -0.007908
      pz      :    -0.011403  p :    -0.067613
      px      :    -0.013087
      py      :    -0.043122
      dz2     :     0.000422  d :     0.008872
      dxz     :     0.001055
      dyz     :     0.005334
      dx2y2   :     0.001514
      dxy     :     0.000548
  2 F s       :    -0.000173  s :    -0.000173
      pz      :     0.015509  p :     0.046307
      px      :     0.002268
      py      :     0.028530
      dz2     :    -0.000123  d :     0.000019
      dxz     :     0.000053
      dyz     :     0.000405
      dx2y2   :     0.000046
      dxy     :    -0.000362
  3 O s       :     0.014050  s :     0.014050
      pz      :     0.225397  p :     0.315832
      px      :    -0.002645
      py      :     0.093080
      dz2     :     0.001125  d :     0.000462
      dxz     :    -0.001006
      dyz     :     0.000848
      dx2y2   :     0.000065
      dxy     :    -0.000571
  4 H s       :     0.003308  s :     0.003308
  5 H s       :    -0.003546  s :    -0.003546
  6 H s       :     0.005086  s :     0.005086
  7 H s       :     0.646776  s :     0.646776


                     *******************************
                     * LOEWDIN POPULATION ANALYSIS *
                     *******************************

-----------------------------------------
LOEWDIN ATOMIC CHARGES AND SPIN DENSITIES
-----------------------------------------
   0 C :   -0.408188    0.044625
   1 C :    0.126419   -0.007719
   2 F :   -0.164366    0.061508
   3 O :   -0.186941    0.316491
   4 H :    0.163977    0.000224
   5 H :    0.151558   -0.003492
   6 H :    0.143905    0.002301
   7 H :    0.173636    0.586061

--------------------------------------------------
LOEWDIN REDUCED ORBITAL CHARGES AND SPIN DENSITIES
--------------------------------------------------
CHARGE
  0 C s       :     2.992259  s :     2.992259
      pz      :     1.055057  p :     3.328935
      px      :     1.126015
      py      :     1.147862
      dz2     :     0.023433  d :     0.086994
      dxz     :     0.015862
      dyz     :     0.015047
      dx2y2   :     0.023229
      dxy     :     0.009424
  1 C s       :     2.876839  s :     2.876839
      pz      :     0.890675  p :     2.654097
      px      :     0.956480
      py      :     0.806942
      dz2     :     0.051257  d :     0.342645
      dxz     :     0.096131
      dyz     :     0.024209
      dx2y2   :     0.076479
      dxy     :     0.094570
  2 F s       :     3.762252  s :     3.762252
      pz      :     1.878311  p :     5.345572
      px      :     1.632980
      py      :     1.834281
      dz2     :     0.008491  d :     0.056542
      dxz     :     0.011958
      dyz     :     0.008933
      dx2y2   :     0.011247
      dxy     :     0.015913
  3 O s       :     3.561583  s :     3.561583
      pz      :     1.544147  p :     4.545690
      px      :     1.457605
      py      :     1.543938
      dz2     :     0.011546  d :     0.079667
      dxz     :     0.019110
      dyz     :     0.004408
      dx2y2   :     0.025461
      dxy     :     0.019141
  4 H s       :     0.836023  s :     0.836023
  5 H s       :     0.848442  s :     0.848442
  6 H s       :     0.856095  s :     0.856095
  7 H s       :     0.826364  s :     0.826364

SPIN
  0 C s       :     0.010740  s :     0.010740
      pz      :     0.025145  p :     0.034500
      px      :     0.006826
      py      :     0.002529
      dz2     :    -0.000617  d :    -0.000615
      dxz     :     0.000117
      dyz     :    -0.000104
      dx2y2   :    -0.000052
      dxy     :     0.000040
  1 C s       :    -0.008964  s :    -0.008964
      pz      :     0.020121  p :    -0.019873
      px      :    -0.007303
      py      :    -0.032691
      dz2     :     0.000536  d :     0.021118
      dxz     :     0.003373
      dyz     :     0.011232
      dx2y2   :     0.004001
      dxy     :     0.001976
  2 F s       :     0.003786  s :     0.003786
      pz      :     0.019853  p :     0.056761
      px      :     0.002573
      py      :     0.034336
      dz2     :     0.000128  d :     0.000961
      dxz     :     0.000186
      dyz     :     0.000903
      dx2y2   :     0.000211
      dxy     :    -0.000467
  3 O s       :     0.006514  s :     0.006514
      pz      :     0.221868  p :     0.309052
      px      :    -0.001342
      py      :     0.088527
      dz2     :     0.001181  d :     0.000926
      dxz     :    -0.000091
      dyz     :     0.000996
      dx2y2   :     0.000164
      dxy     :    -0.001324
  4 H s       :     0.000224  s :     0.000224
  5 H s       :    -0.003492  s :    -0.003492
  6 H s       :     0.002301  s :     0.002301
  7 H s       :     0.586061  s :     0.586061


                      *****************************
                      * MAYER POPULATION ANALYSIS *
                      *****************************

  NA   - Mulliken gross atomic population
  ZA   - Total nuclear charge
  QA   - Mulliken gross atomic charge
  VA   - Mayer's total valence
  BVA  - Mayer's bonded valence
  FA   - Mayer's free valence

  ATOM       NA         ZA         QA         VA         BVA        FA
  0 C      6.5557     6.0000    -0.5557     3.8553     3.6183     0.2370
  1 C      5.4804     6.0000     0.5196     4.0073     3.9253     0.0820
  2 F      9.3479     9.0000    -0.3479     1.1947     0.9062     0.2885
  3 O      8.3795     8.0000    -0.3795     2.2759     2.0951     0.1808
  4 H      0.7845     1.0000     0.2155     0.9255     0.8938     0.0317
  5 H      0.8102     1.0000     0.1898     0.9320     0.8960     0.0360
  6 H      0.8110     1.0000     0.1890     0.9314     0.8961     0.0353
  7 H      0.8309     1.0000     0.1691     0.9480     0.5194     0.4286

  Mayer bond orders larger than 0.100000
B(  0-C ,  1-C ) :   0.8905 B(  0-C ,  4-H ) :   0.9071 B(  0-C ,  5-H ) :   0.9078 
B(  0-C ,  6-H ) :   0.9067 B(  1-C ,  2-F ) :   0.7783 B(  1-C ,  3-O ) :   1.8823 
B(  1-C ,  7-H ) :   0.3938 


----------------------------------
MP2 DERIVATIVE INTEGRAL GENERATION
----------------------------------


Input Wavefunction Amplitudes       ... input.mp2tbb.tmp
Input Correlated Electron Density   ... input.pmp2re
Input Energy Weighted Density       ... input.wmp2.tmp
Input SCF Electron Density          ... input.scfp

One-Electron Terms    ...
                        ... One-Electron Terms done
Prescreening matrices              ... done

Batch handling in the gradient evaluation:
Memory available                      ...  256.0 MB
Memory per occupied orbital in Q2     ...    1.0 MB
Memory per occupied orbital in Q3     ...    0.0 MB
Total memory requirement per |i>      ...    1.0 MB
Max. Number of orbitals possible      ...    245
Number of orbitals treated per batch  ...     33
Number of batches to be done          ...      1
Batch   0: i=    0 ...    32

---------------------------------------
MP2 TOTAL ENERGY:     -252.804350537 Eh
---------------------------------------

The final MP2 gradient
  0:  -0.02251805   0.03106204   0.01423563
  1:   0.00487525   0.02241712   0.08310081
  2:   0.00501063  -0.05301912  -0.04544105
  3:  -0.01013707  -0.01800162  -0.06741399
  4:   0.00207472   0.00104307  -0.00437195
  5:   0.00079824   0.00049242   0.00514701
  6:  -0.00032369   0.00625287   0.00462256
  7:   0.02021998   0.00975322   0.01012098

-----------------------------------
NORM OF THE MP2 GRADIENT:  0.140349
-----------------------------------

Maximum memory used throughout the entire MP2-calculation: 111.3 MB

-------------------------   --------------------
FINAL SINGLE POINT ENERGY      -252.804350537290
-------------------------   --------------------

------------------------------------------------------------------------------
                         ORCA GEOMETRY RELAXATION STEP
------------------------------------------------------------------------------

Reading the OPT-File                    .... done
Getting information on internals        .... done
Copying old internal coords+grads       .... done
Making the new internal coordinates     .... (new redundants).... done
Validating the new internal coordinates .... (new redundants).... done
Calculating the B-matrix                .... done
Calculating the G,G- and P matrices     .... done
Transforming gradient to internals      .... done
Projecting the internal gradient        .... done
Number of atoms                         ....   8
Number of internal coordinates          ....  35
Current Energy                          ....  -252.804350537 Eh
Current gradient norm                   ....     0.140349383 Eh/bohr
Maximum allowed component of the step   ....  0.300
Current trust radius                    ....  0.300
Evaluating the initial hessian          ....  (Almloef) done
Projecting the Hessian                  .... done
Diagonalizing the Hessian               .... done
Dimension of the hessian                ....  35
Lowest eigenvalues of the Hessian:
  0.012462906  0.052039603  0.077469571  0.097152044  0.109990704
Hessian has   0 negative eigenvalues
Taking P-RFO step
Searching for lambda that maximizes along the lowest mode
TS mode is mode number   0 with eigenvalue   0.01246291 and components:
   1.    0.00000000
   2.   -0.00000000
   3.    0.00000000
   4.    0.00000000
   5.    0.00000000
   6.    0.00000000
   7.   -0.00000000
   8.   -0.00000000
   9.   -0.00000000
  10.    0.00000000
  11.   -0.00000000
  12.   -0.00000000
  13.    0.00000000
  14.   -0.00000000
  15.    0.00000000
  16.   -0.00000000
  17.    0.00000000
  18.   -0.00000000
  19.    0.00000000
  20.   -0.00000000
  21.    0.00000000
  22.    0.00000000
  23.    0.33333333
  24.    0.33333333
  25.    0.33333333
  26.    0.33333333
  27.    0.33333333
  28.    0.33333333
  29.    0.33333333
  30.    0.33333333
  31.    0.33333333
  32.   -0.00000000
  33.   -0.00000000
  34.   -0.00000000
  35.   -0.00000000

Lambda that maximizes along the TS mode:       0.01316316
Searching for lambda that minimizes along all other modes
In cycle   1: lambdaN =  -0.04565530   step =   0.04565530
In cycle   2: lambdaN =  -0.05057565   step =   0.00492035
In cycle   3: lambdaN =  -0.05060239   step =   0.00002674
In cycle   4: lambdaN =  -0.05060239   step =   0.00000000
Lambda that minimizes along all other modes:  -0.05060239
Calculated stepsize too large (   1.0107 >    0.3000). Scaled with    0.2968.
The final length of the internal step   ....       0.3000
Converting the step to cartesian space:
 Initial RMS(Int)=    0.0507092553
Transforming coordinates:
 Iter   0:  RMS(Cart)=    0.0566686211 RMS(Int)=    0.0503010234
 Iter   1:  RMS(Cart)=    0.0016709000 RMS(Int)=    0.0016259342
 Iter   2:  RMS(Cart)=    0.0000835363 RMS(Int)=    0.0000752739
 Iter   3:  RMS(Cart)=    0.0000048145 RMS(Int)=    0.0000048749
 Iter   4:  RMS(Cart)=    0.0000002566 RMS(Int)=    0.0000002416
 Iter   5:  RMS(Cart)=    0.0000000146 RMS(Int)=    0.0000000147
done
Storing new coordinates                 .... done

                                .--------------------.
          ----------------------|Geometry convergence|-------------------------
          Item                value                   Tolerance       Converged
          ---------------------------------------------------------------------
          RMS gradient        0.0190113182            0.0000080000      NO
          MAX gradient        0.0486949263            0.0000300000      NO
          RMS step            0.0507092553            0.0001000000      NO
          MAX step            0.0890455589            0.0002000000      NO
          ........................................................
          Max(Bonds)      0.0126      Max(Angles)    2.52
          Max(Dihed)        5.10      Max(Improp)    0.00
          ---------------------------------------------------------------------

The optimization has not yet converged - more geometry cycles are needed


    ---------------------------------------------------------------------------
                         Redundant Internal Coordinates
                            (Angstroem and degrees)

        Definition                    Value    dE/dq     Step     New-Value  comp.(TS mode)
    ----------------------------------------------------------------------------
     1. B(C   1,C   0)                1.5140 -0.035834  0.0126    1.5266   
     2. B(F   2,C   1)                1.3790 -0.024046  0.0082    1.3872   
     3. B(O   3,C   1)                1.2090  0.010616 -0.0015    1.2075   
     4. B(H   4,C   0)                1.0909  0.002707 -0.0010    1.0899   
     5. B(H   5,C   0)                1.0901 -0.001299  0.0005    1.0906   
     6. B(H   6,C   0)                1.0890  0.000605 -0.0002    1.0888   
     7. B(H   7,C   1)                1.4920  0.013160 -0.0087    1.4833   
     8. B(H   7,F   2)                1.8115 -0.013934  0.0085    1.8200   
     9. A(H   4,C   0,H   5)          109.65  0.001472   -0.21    109.43   
    10. A(H   4,C   0,H   6)          108.98 -0.000235    0.08    109.06   
    11. A(C   1,C   0,H   4)          108.91  0.008100   -0.40    108.51   
    12. A(C   1,C   0,H   6)          108.88 -0.010575    0.55    109.43   
    13. A(C   1,C   0,H   5)          110.37 -0.004965    0.20    110.57   
    14. A(H   5,C   0,H   6)          110.01  0.006204   -0.22    109.80   
    15. A(F   2,C   1,O   3)          138.69  0.041984   -2.52    136.17   
    16. A(O   3,C   1,H   7)          114.71  0.017536   -1.88    112.83   
    17. A(C   0,C   1,F   2)           99.41 -0.021009    2.42    101.83   
    18. A(F   2,C   1,H   7)           78.13 -0.004038    0.49     78.62   
    19. A(C   0,C   1,H   7)          112.25  0.022950   -1.71    110.55   
    20. A(C   0,C   1,O   3)          109.73 -0.039595    2.10    111.83   
    21. A(C   1,F   2,H   7)           53.71  0.010744   -0.68     53.03   
    22. A(C   1,H   7,F   2)           48.16 -0.006706    0.20     48.35   
    23. D(F   2,C   1,C   0,H   5)    129.80 -0.006687   -5.10    124.70          0.33
    24. D(F   2,C   1,C   0,H   6)      8.94 -0.004528   -5.10      3.84          0.33
    25. D(O   3,C   1,C   0,H   4)     40.48 -0.002001   -5.10     35.38          0.33
    26. D(O   3,C   1,C   0,H   6)    159.20 -0.003717   -5.10    154.10          0.33
    27. D(F   2,C   1,C   0,H   4)   -109.78 -0.002811   -5.10   -114.88          0.33
    28. D(H   7,C   1,C   0,H   4)    169.28  0.007368   -5.10    164.18          0.33
    29. D(H   7,C   1,C   0,H   5)     48.86  0.003492   -5.10     43.75          0.33
    30. D(H   7,C   1,C   0,H   6)    -72.00  0.005651   -5.10    -77.10          0.33
    31. D(O   3,C   1,C   0,H   5)    -79.94 -0.005876   -5.10    -85.05          0.33
    32. D(H   7,F   2,C   1,O   3)    114.08  0.034046   -3.04    111.04   
    33. D(H   7,F   2,C   1,C   0)   -110.94 -0.026559    2.09   -108.85   
    34. D(F   2,H   7,C   1,O   3)   -138.44 -0.048695    2.98   -135.46   
    35. D(F   2,H   7,C   1,C   0)     95.42 -0.028518    3.13     98.55   
    ----------------------------------------------------------------------------

         *************************************************************
         *                GEOMETRY OPTIMIZATION CYCLE   2            *
         *************************************************************
---------------------------------
[...]
AutoCI program output          ... >input.lastautoci

	<< Calculating on displaced geometry   1 (of  48) >>
	<< Calculating on displaced geometry   2 (of  48) >>
	<< Calculating on displaced geometry   3 (of  48) >>
	<< Calculating on displaced geometry   4 (of  48) >>
	<< Calculating on displaced geometry   5 (of  48) >>
	<< Calculating on displaced geometry   6 (of  48) >>
	<< Calculating on displaced geometry   7 (of  48) >>
	<< Calculating on displaced geometry   8 (of  48) >>
	<< Calculating on displaced geometry   9 (of  48) >>
	<< Calculating on displaced geometry  10 (of  48) >>
	<< Calculating on displaced geometry  11 (of  48) >>
	<< Calculating on displaced geometry  12 (of  48) >>
	<< Calculating on displaced geometry  13 (of  48) >>
	<< Calculating on displaced geometry  14 (of  48) >>
	<< Calculating on displaced geometry  15 (of  48) >>
	<< Calculating on displaced geometry  16 (of  48) >>
	<< Calculating on displaced geometry  17 (of  48) >>
	<< Calculating on displaced geometry  18 (of  48) >>
	<< Calculating on displaced geometry  19 (of  48) >>
	<< Calculating on displaced geometry  20 (of  48) >>
	<< Calculating on displaced geometry  21 (of  48) >>
	<< Calculating on displaced geometry  22 (of  48) >>
	<< Calculating on displaced geometry  23 (of  48) >>
	<< Calculating on displaced geometry  24 (of  48) >>
	<< Calculating on displaced geometry  25 (of  48) >>
	<< Calculating on displaced geometry  26 (of  48) >>
	<< Calculating on displaced geometry  27 (of  48) >>
	<< Calculating on displaced geometry  28 (of  48) >>
	<< Calculating on displaced geometry  29 (of  48) >>
	<< Calculating on displaced geometry  30 (of  48) >>
	<< Calculating on displaced geometry  31 (of  48) >>
	<< Calculating on displaced geometry  32 (of  48) >>
	<< Calculating on displaced geometry  33 (of  48) >>
	<< Calculating on displaced geometry  34 (of  48) >>
	<< Calculating on displaced geometry  35 (of  48) >>
	<< Calculating on displaced geometry  36 (of  48) >>
	<< Calculating on displaced geometry  37 (of  48) >>
	<< Calculating on displaced geometry  38 (of  48) >>
	<< Calculating on displaced geometry  39 (of  48) >>
	<< Calculating on displaced geometry  40 (of  48) >>
	<< Calculating on displaced geometry  41 (of  48) >>
	<< Calculating on displaced geometry  42 (of  48) >>
	<< Calculating on displaced geometry  43 (of  48) >>
	<< Calculating on displaced geometry  44 (of  48) >>
	<< Calculating on displaced geometry  45 (of  48) >>
	<< Calculating on displaced geometry  46 (of  48) >>
	<< Calculating on displaced geometry  47 (of  48) >>
	<< Calculating on displaced geometry  48 (of  48) >>

-----------------------
VIBRATIONAL FREQUENCIES
-----------------------

Scaling factor for frequencies =  1.000000000 (already applied!)

   0:         0.00 cm**-1
   1:         0.00 cm**-1
   2:         0.00 cm**-1
   3:         0.00 cm**-1
   4:         0.00 cm**-1
   5:         0.00 cm**-1
   6:     -1874.12 cm**-1 ***imaginary mode***
   7:       233.92 cm**-1
   8:       399.79 cm**-1
   9:       540.94 cm**-1
  10:       652.22 cm**-1
  11:       725.29 cm**-1
  12:       756.02 cm**-1
  13:       876.10 cm**-1
  14:      1051.18 cm**-1
  15:      1133.15 cm**-1
  16:      1229.60 cm**-1
  17:      1453.18 cm**-1
  18:      1536.49 cm**-1
  19:      1544.42 cm**-1
  20:      1801.88 cm**-1
  21:      3135.33 cm**-1
  22:      3234.13 cm**-1
  23:      3265.32 cm**-1


------------
NORMAL MODES
------------

These modes are the cartesian displacements weighted by the diagonal matrix
M(i,i)=1/sqrt(m[i]) where m[i] is the mass of the displaced atom
Thus, these vectors are normalized but *not* orthogonal

                  0          1          2          3          4          5    
      0       0.000000   0.000000   0.000000   0.000000   0.000000   0.000000
      1       0.000000   0.000000   0.000000   0.000000   0.000000   0.000000
      2       0.000000   0.000000   0.000000   0.000000   0.000000   0.000000
      3       0.000000   0.000000   0.000000   0.000000   0.000000   0.000000
      4       0.000000   0.000000   0.000000   0.000000   0.000000   0.000000
      5       0.000000   0.000000   0.000000   0.000000   0.000000   0.000000
      6       0.000000   0.000000   0.000000   0.000000   0.000000   0.000000
      7       0.000000   0.000000   0.000000   0.000000   0.000000   0.000000
      8       0.000000   0.000000   0.000000   0.000000   0.000000   0.000000
      9       0.000000   0.000000   0.000000   0.000000   0.000000   0.000000
     10       0.000000   0.000000   0.000000   0.000000   0.000000   0.000000
     11       0.000000   0.000000   0.000000   0.000000   0.000000   0.000000
     12       0.000000   0.000000   0.000000   0.000000   0.000000   0.000000
     13       0.000000   0.000000   0.000000   0.000000   0.000000   0.000000
     14       0.000000   0.000000   0.000000   0.000000   0.000000   0.000000
     15       0.000000   0.000000   0.000000   0.000000   0.000000   0.000000
     16       0.000000   0.000000   0.000000   0.000000   0.000000   0.000000
     17       0.000000   0.000000   0.000000   0.000000   0.000000   0.000000
     18       0.000000   0.000000   0.000000   0.000000   0.000000   0.000000
     19       0.000000   0.000000   0.000000   0.000000   0.000000   0.000000
     20       0.000000   0.000000   0.000000   0.000000   0.000000   0.000000
     21       0.000000   0.000000   0.000000   0.000000   0.000000   0.000000
     22       0.000000   0.000000   0.000000   0.000000   0.000000   0.000000
     23       0.000000   0.000000   0.000000   0.000000   0.000000   0.000000
                  6          7          8          9         10         11    
      0       0.010340   0.013976  -0.152881   0.096447   0.004749   0.022900
      1      -0.013672   0.007977  -0.130991  -0.102192  -0.001190  -0.020638
      2       0.022548   0.005365  -0.050988  -0.150055  -0.004883  -0.106641
      3      -0.131016  -0.002819   0.122298   0.003652   0.132457  -0.026117
      4       0.107377  -0.008070   0.064301   0.015167  -0.173203   0.009131
      5      -0.073359   0.003033  -0.010583  -0.111867   0.098611  -0.068343
      6       0.000855  -0.020073  -0.026764  -0.153966  -0.150390  -0.002404
      7      -0.020318   0.021558   0.112496  -0.016104  -0.035740  -0.025312
      8       0.005271  -0.037156   0.172091   0.080817  -0.036822   0.043271
      9       0.060526   0.008038   0.093562   0.079049   0.093913  -0.001509
     10      -0.006179  -0.030107  -0.048470   0.142444   0.151830   0.003043
     11      -0.006716   0.034809  -0.145527   0.161592  -0.042200   0.056223
     12      -0.012313   0.544696  -0.155227   0.236615  -0.282899   0.084471
     13       0.014188   0.286992  -0.196101  -0.261669   0.329295  -0.055115
     14       0.049421   0.112061  -0.112548  -0.346587   0.399794  -0.159220
     15      -0.005224  -0.376622  -0.523742   0.144185  -0.044048   0.075706
     16       0.002490   0.288394  -0.009862  -0.162349   0.097627  -0.044913
     17       0.005407  -0.280819   0.244165  -0.029057  -0.279838  -0.130647
     18       0.012794  -0.054101  -0.182951   0.088476   0.027480   0.025013
     19       0.001248  -0.507637  -0.480047  -0.137954   0.081070   0.002972
     20      -0.002327   0.196598  -0.334678   0.049916  -0.385156  -0.018362
     21       0.465890   0.003827   0.245742  -0.014883   0.008409  -0.077596
     22      -0.653472   0.004902   0.129752  -0.358437  -0.166238   0.662924
     23       0.560201   0.019905   0.003086  -0.641260   0.512171   0.685382
                 12         13         14         15         16         17    
      0      -0.009832  -0.057508  -0.170965   0.056922  -0.080221  -0.039616
      1       0.022589   0.151569  -0.031084  -0.105182  -0.129931   0.049752
      2       0.003856   0.176280   0.062638   0.100373  -0.075473   0.136488
      3       0.047207   0.099039   0.007866  -0.040321   0.094015  -0.005036
      4       0.044710   0.135588  -0.097382   0.085195   0.301013  -0.022405
      5      -0.034088  -0.099169  -0.126011  -0.145954   0.225757  -0.020201
      6      -0.004481  -0.129954   0.010839   0.003086  -0.043192   0.002394
      7       0.016733  -0.211284   0.051478  -0.010534  -0.080714   0.006010
      8      -0.008350  -0.061456   0.039487   0.020743  -0.033632   0.002246
      9       0.038201   0.125887   0.092387   0.016168   0.005586   0.003438
     10      -0.043259   0.008907   0.013547  -0.019669  -0.044080   0.003827
     11       0.015453  -0.024272  -0.026864   0.032597  -0.036459   0.000123
     12      -0.022077   0.066179   0.186379  -0.296967   0.265065   0.198582
     13      -0.065834  -0.150824   0.131873   0.288864   0.121163  -0.391920
     14      -0.078155  -0.146704   0.115577   0.571209   0.046377  -0.375480
     15      -0.053727  -0.183330   0.295167  -0.125483   0.376593   0.252249
     16       0.014599   0.119399  -0.167446   0.094074  -0.218610   0.052335
     17       0.126575   0.592552  -0.340725  -0.277165  -0.661634  -0.516140
     18      -0.013467  -0.087584  -0.150085   0.094119  -0.021821  -0.031617
     19      -0.026352  -0.048066   0.368833   0.108857   0.273970  -0.152808
     20      -0.026937   0.282640   0.683625  -0.383391   0.100932  -0.533786
     21      -0.877952   0.161075  -0.058677  -0.184265  -0.058810   0.013154
     22      -0.353090   0.498573   0.012255   0.257095   0.005801  -0.007469
     23       0.250850  -0.103801  -0.021180  -0.275856  -0.063865  -0.004510
                 18         19         20         21         22         23    
      0       0.055427   0.005561  -0.023364  -0.009716  -0.042778  -0.079927
      1       0.002423  -0.053489  -0.003430  -0.000198   0.074567  -0.050463
      2       0.003779   0.014564   0.035350   0.049540  -0.031608  -0.012272
      3       0.000145   0.010528   0.433132   0.000748  -0.000097  -0.001188
      4       0.009465  -0.017299   0.053998  -0.001421   0.000532  -0.001299
      5       0.020872   0.004963  -0.231708  -0.001155  -0.001418   0.000136
      6      -0.002179  -0.000087  -0.002571   0.000069   0.000054   0.000320
      7      -0.001448   0.001483   0.001777   0.000109  -0.000122   0.000431
      8      -0.001743  -0.000909   0.010040  -0.000069  -0.000043   0.000141
      9       0.012608  -0.010171  -0.330103  -0.000021   0.000081   0.000395
     10      -0.001483   0.003016  -0.011406   0.000136  -0.000079   0.000158
     11      -0.006262   0.001748   0.105194  -0.000219  -0.000040  -0.000107
     12      -0.549703   0.353840  -0.112113  -0.160377   0.142382  -0.026615
     13      -0.353944  -0.120441   0.020620   0.493592  -0.456251   0.035012
     14      -0.159321  -0.178464   0.088126  -0.502289   0.476043  -0.045721
     15      -0.286695  -0.509935   0.064353  -0.222044  -0.213535   0.341177
     16       0.283531   0.225528   0.004135  -0.418482  -0.376723   0.652851
     17      -0.434395   0.035563  -0.117218  -0.098077  -0.102218   0.160490
     18       0.019170   0.099569  -0.030614   0.487085   0.578706   0.640778
     19      -0.024563   0.695708  -0.016646  -0.060405  -0.056988  -0.083477
     20       0.437067  -0.126954   0.167037   0.029092   0.020872   0.030669
     21      -0.003996   0.027894   0.483564   0.001228   0.001024  -0.001103
     22       0.004150  -0.033140  -0.463126   0.000364  -0.001336   0.001773
     23      -0.004842   0.026574   0.342952  -0.000493   0.000263  -0.001793


-----------
IR SPECTRUM
-----------

 Mode   freq       eps      Int      T**2         TX        TY        TZ
       cm**-1   L/(mol*cm) km/mol    a.u.
----------------------------------------------------------------------------
  7:    233.92   0.000071    0.36  0.000094  ( 0.005300  0.008115  0.000699)
  8:    399.79   0.000010    0.05  0.000008  ( 0.001939 -0.001768 -0.001123)
  9:    540.94   0.004432   22.40  0.002557  ( 0.013193 -0.016734 -0.045856)
 10:    652.22   0.001104    5.58  0.000528  ( 0.018163 -0.010308  0.009587)
 11:    725.29   0.000512    2.59  0.000220  (-0.008653  0.007430 -0.009506)
 12:    756.02   0.005679   28.70  0.002344  (-0.025873  0.039246 -0.011587)
 13:    876.10   0.009627   48.65  0.003429  ( 0.026011  0.050598  0.013868)
 14:   1051.18   0.007805   39.44  0.002317  (-0.024428 -0.033482 -0.024483)
 15:   1133.15   0.004667   23.58  0.001285  ( 0.004751  0.011663 -0.033565)
 16:   1229.60   0.032821  165.86  0.008330  ( 0.035333  0.075890  0.036359)
 17:   1453.18   0.003754   18.97  0.000806  ( 0.000137 -0.016647 -0.023003)
 18:   1536.49   0.002324   11.75  0.000472  (-0.021712  0.000239  0.000771)
 19:   1544.42   0.001197    6.05  0.000242  ( 0.001296  0.014190 -0.006238)
 20:   1801.88   0.026452  133.68  0.004581  ( 0.056713  0.023863 -0.028200)
 21:   3135.33   0.000101    0.51  0.000010  (-0.000881 -0.000085  0.003051)
 22:   3234.13   0.000483    2.44  0.000047  (-0.004416  0.004366  0.002841)
 23:   3265.32   0.000307    1.55  0.000029  (-0.004375 -0.003127 -0.000658)

* The epsilon (eps) is given for a Dirac delta lineshape.
** The dipole moment derivative (T) already includes vibrational overlap.

The first frequency considered to be a vibration is 7
The total number of vibrations considered is 17


--------------------------
THERMOCHEMISTRY AT 298.15K
--------------------------

Temperature         ... 298.15 K
Pressure            ... 1.00 atm
Total Mass          ... 63.05 AMU

Throughout the following assumptions are being made:
  (1) The electronic state is orbitally nondegenerate
      but the spin degeneracy is treated
  (2) There are no thermally accessible electronically excited states
  (3) Hindered rotations indicated by low frequency modes are not
      treated as such but are treated as vibrations and this may
      cause some error
  (4) All equations used are the standard statistical mechanics
      equations for an ideal gas
  (5) All vibrations are strictly harmonic

freq.     233.92  E(vib)   ...       0.32 
freq.     399.79  E(vib)   ...       0.19 
freq.     540.94  E(vib)   ...       0.12 
freq.     652.22  E(vib)   ...       0.08 
freq.     725.29  E(vib)   ...       0.06 
freq.     756.02  E(vib)   ...       0.06 
freq.     876.10  E(vib)   ...       0.04 
freq.    1051.18  E(vib)   ...       0.02 
freq.    1133.15  E(vib)   ...       0.01 
freq.    1229.60  E(vib)   ...       0.01 
freq.    1453.18  E(vib)   ...       0.00 
freq.    1536.49  E(vib)   ...       0.00 
freq.    1544.42  E(vib)   ...       0.00 
freq.    1801.88  E(vib)   ...       0.00 
freq.    3135.33  E(vib)   ...       0.00 
freq.    3234.13  E(vib)   ...       0.00 
freq.    3265.32  E(vib)   ...       0.00 

------------
INNER ENERGY
------------

The inner energy is: U= E(el) + E(ZPE) + E(vib) + E(rot) + E(trans)
    E(el)   - is the total energy from the electronic structure calculation
              = E(kin-el) + E(nuc-el) + E(el-el) + E(nuc-nuc)
    E(ZPE)  - the the zero temperature vibrational energy from the frequency calculation
    E(vib)  - the the finite temperature correction to E(ZPE) due to population
              of excited vibrational states
    E(rot)  - is the rotational thermal energy
    E(trans)- is the translational thermal energy

Summary of contributions to the inner energy U:
Electronic energy                ...   -252.85563922 Eh
Zero point energy                ...      0.05369407 Eh      33.69 kcal/mol
Thermal vibrational correction   ...      0.00148474 Eh       0.93 kcal/mol
Thermal rotational correction    ...      0.00141627 Eh       0.89 kcal/mol
Thermal translational correction ...      0.00141627 Eh       0.89 kcal/mol
-----------------------------------------------------------------------
Total thermal energy                   -252.79762787 Eh


Summary of corrections to the electronic energy:
(perhaps to be used in another calculation)
Total thermal correction                  0.00431728 Eh       2.71 kcal/mol
Non-thermal (ZPE) correction              0.05369407 Eh      33.69 kcal/mol
-----------------------------------------------------------------------
Total correction                          0.05801135 Eh      36.40 kcal/mol


--------
ENTHALPY
--------

The enthalpy is H = U + kB*T
                kB is Boltzmann's constant
Total free energy                 ...   -252.79762787 Eh 
Thermal Enthalpy correction       ...      0.00094421 Eh       0.59 kcal/mol
-----------------------------------------------------------------------
Total Enthalpy                    ...   -252.79668366 Eh


Note: Only C1 symmetry has been detected, increase convergence thresholds 
      if your molecule has a higher symmetry. Symmetry factor of 1.0 is   
      used for the rotational entropy correction. 
 

Note: Rotational entropy computed according to Herzberg 
Infrared and Raman Spectra, Chapter V,1, Van Nostrand Reinhold, 1945 
Point Group:  C1, Symmetry Number:   1  
Rotational constants in cm-1:     0.335206     0.306027     0.174868 

Vibrational entropy computed according to the QRRHO of S. Grimme
Chem.Eur.J. 2012 18 9955


-------
ENTROPY
-------

The entropy contributions are T*S = T*(S(el)+S(vib)+S(rot)+S(trans))
     S(el)   - electronic entropy
     S(vib)  - vibrational entropy
     S(rot)  - rotational entropy
     S(trans)- translational entropy
The entropies will be listed as multiplied by the temperature to get
units of energy

Electronic entropy                ...      0.00065446 Eh      0.41 kcal/mol
Vibrational entropy               ...      0.00220186 Eh      1.38 kcal/mol
Rotational entropy                ...      0.01140900 Eh      7.16 kcal/mol
Translational entropy             ...      0.01821802 Eh     11.43 kcal/mol
-----------------------------------------------------------------------
Final entropy term                ...      0.03248334 Eh     20.38 kcal/mol

In case the symmetry of your molecule has not been determined correctly
or in case you have a reason to use a different symmetry number we print 
out the resulting rotational entropy values for sn=1,12 :
 --------------------------------------------------------
|  sn= 1 | S(rot)=       0.01140900 Eh      7.16 kcal/mol|
|  sn= 2 | S(rot)=       0.01075454 Eh      6.75 kcal/mol|
|  sn= 3 | S(rot)=       0.01037171 Eh      6.51 kcal/mol|
|  sn= 4 | S(rot)=       0.01010009 Eh      6.34 kcal/mol|
|  sn= 5 | S(rot)=       0.00988940 Eh      6.21 kcal/mol|
|  sn= 6 | S(rot)=       0.00971725 Eh      6.10 kcal/mol|
|  sn= 7 | S(rot)=       0.00957171 Eh      6.01 kcal/mol|
|  sn= 8 | S(rot)=       0.00944563 Eh      5.93 kcal/mol|
|  sn= 9 | S(rot)=       0.00933442 Eh      5.86 kcal/mol|
|  sn=10 | S(rot)=       0.00923494 Eh      5.80 kcal/mol|
|  sn=11 | S(rot)=       0.00914495 Eh      5.74 kcal/mol|
|  sn=12 | S(rot)=       0.00906280 Eh      5.69 kcal/mol|
 --------------------------------------------------------


-------------------
GIBBS FREE ENERGY
-------------------

The Gibbs free energy is G = H - T*S

Total enthalpy                    ...   -252.79668366 Eh 
Total entropy correction          ...     -0.03248334 Eh    -20.38 kcal/mol
-----------------------------------------------------------------------
Final Gibbs free energy         ...   -252.82916699 Eh

For completeness - the Gibbs free energy minus the electronic energy
G-E(el)                           ...      0.02647222 Eh     16.61 kcal/mol



Timings for individual modules:

Sum of individual times         ...     1443.499 sec (=  24.058 min)
GTO integral calculation        ...        9.758 sec (=   0.163 min)   0.7 %
SCF iterations                  ...      226.589 sec (=   3.776 min)  15.7 %
MP2 module                      ...      318.460 sec (=   5.308 min)  22.1 %
Geometry relaxation             ...        2.283 sec (=   0.038 min)   0.2 %
Numerical frequency calculation ...      886.409 sec (=  14.773 min)  61.4 %
                             ****ORCA TERMINATED NORMALLY****
TOTAL RUN TIME: 0 days 0 hours 24 minutes 6 seconds 560 msec
