
                                 *****************
                                 * O   R   C   A *
                                 *****************

                                            #,                                       
                                            ###                                      
                                            ####                                     
                                            #####                                    
                                            ######                                   
                                           ########,                                 
                                     ,,################,,,,,                         
                               ,,#################################,,                 
                          ,,##########################################,,             
                       ,#########################################, ''#####,          
                    ,#############################################,,   '####,        
                  ,##################################################,,,,####,       
                ,###########''''           ''''###############################       
              ,#####''   ,,,,##########,,,,          '''####'''          '####       
            ,##' ,,,,###########################,,,                        '##       
           ' ,,###''''                  '''############,,,                           
         ,,##''                                '''############,,,,        ,,,,,,###''
      ,#''                                            '''#######################'''  
     '                                                          ''''####''''         
             ,#######,   #######,   ,#######,      ##                                
            ,#'     '#,  ##    ##  ,#'     '#,    #''#        ######   ,####,        
            ##       ##  ##   ,#'  ##            #'  '#       #        #'  '#        
            ##       ##  #######   ##           ,######,      #####,   #    #        
            '#,     ,#'  ##    ##  '#,     ,#' ,#      #,         ##   #,  ,#        
             '#######'   ##     ##  '#######'  #'      '#     #####' # '####'        



                  #######################################################
                  #                        -***-                        #
                  #          Department of theory and spectroscopy      #
                  #    Directorship and core code : Frank Neese         #
                  #        Max Planck Institute fuer Kohlenforschung    #
                  #                Kaiser Wilhelm Platz 1               #
                  #                 D-45470 Muelheim/Ruhr               #
                  #                      Germany                        #
                  #                                                     #
                  #                  All rights reserved                #
                  #                        -***-                        #
                  #######################################################


                         Program Version 5.0.1 -  RELEASE  -


 With contributions from (in alphabetic order):
   Daniel Aravena         : Magnetic Suceptibility
   Michael Atanasov       : Ab Initio Ligand Field Theory (pilot matlab implementation)
   Alexander A. Auer      : GIAO ZORA, VPT2 properties, NMR spectrum
   Ute Becker             : Parallelization
   Giovanni Bistoni       : ED, misc. LED, open-shell LED, HFLD
   Martin Brehm           : Molecular dynamics
   Dmytro Bykov           : SCF Hessian
   Vijay G. Chilkuri      : MRCI spin determinant printing, contributions to CSF-ICE
   Dipayan Datta          : RHF DLPNO-CCSD density
   Achintya Kumar Dutta   : EOM-CC, STEOM-CC
   Dmitry Ganyushin       : Spin-Orbit,Spin-Spin,Magnetic field MRCI
   Miquel Garcia          : C-PCM and meta-GGA Hessian, CC/C-PCM, Gaussian charge scheme
   Yang Guo               : DLPNO-NEVPT2, F12-NEVPT2, CIM, IAO-localization
   Andreas Hansen         : Spin unrestricted coupled pair/coupled cluster methods
   Benjamin Helmich-Paris : MC-RPA, TRAH-SCF, COSX integrals
   Lee Huntington         : MR-EOM, pCC
   Robert Izsak           : Overlap fitted RIJCOSX, COSX-SCS-MP3, EOM
   Marcus Kettner         : VPT2
   Christian Kollmar      : KDIIS, OOCD, Brueckner-CCSD(T), CCSD density, CASPT2, CASPT2-K
   Simone Kossmann        : Meta GGA functionals, TD-DFT gradient, OOMP2, MP2 Hessian
   Martin Krupicka        : Initial AUTO-CI
   Lucas Lang             : DCDCAS
   Marvin Lechner         : AUTO-CI (C++ implementation), FIC-MRCC
   Dagmar Lenk            : GEPOL surface, SMD
   Dimitrios Liakos       : Extrapolation schemes; Compound Job, initial MDCI parallelization
   Dimitrios Manganas     : Further ROCIS development; embedding schemes
   Dimitrios Pantazis     : SARC Basis sets
   Anastasios Papadopoulos: AUTO-CI, single reference methods and gradients
   Taras Petrenko         : DFT Hessian,TD-DFT gradient, ASA, ECA, R-Raman, ABS, FL, XAS/XES, NRVS
   Peter Pinski           : DLPNO-MP2, DLPNO-MP2 Gradient
   Christoph Reimann      : Effective Core Potentials
   Marius Retegan         : Local ZFS, SOC
   Christoph Riplinger    : Optimizer, TS searches, QM/MM, DLPNO-CCSD(T), (RO)-DLPNO pert. Triples
   Tobias Risthaus        : Range-separated hybrids, TD-DFT gradient, RPA, STAB
   Michael Roemelt        : Original ROCIS implementation
   Masaaki Saitow         : Open-shell DLPNO-CCSD energy and density
   Barbara Sandhoefer     : DKH picture change effects
   Avijit Sen             : IP-ROCIS
   Kantharuban Sivalingam : CASSCF convergence, NEVPT2, FIC-MRCI
   Bernardo de Souza      : ESD, SOC TD-DFT
   Georgi Stoychev        : AutoAux, RI-MP2 NMR, DLPNO-MP2 response
   Willem Van den Heuvel  : Paramagnetic NMR
   Boris Wezisla          : Elementary symmetry handling
   Frank Wennmohs         : Technical directorship


 We gratefully acknowledge several colleagues who have allowed us to
 interface, adapt or use parts of their codes:
   Stefan Grimme, W. Hujo, H. Kruse, P. Pracht,  : VdW corrections, initial TS optimization,
                  C. Bannwarth, S. Ehlert          DFT functionals, gCP, sTDA/sTD-DF
   Ed Valeev, F. Pavosevic, A. Kumar             : LibInt (2-el integral package), F12 methods
   Garnet Chan, S. Sharma, J. Yang, R. Olivares  : DMRG
   Ulf Ekstrom                                   : XCFun DFT Library
   Mihaly Kallay                                 : mrcc  (arbitrary order and MRCC methods)
   Jiri Pittner, Ondrej Demel                    : Mk-CCSD
   Frank Weinhold                                : gennbo (NPA and NBO analysis)
   Christopher J. Cramer and Donald G. Truhlar   : smd solvation model
   Lars Goerigk                                  : TD-DFT with DH, B97 family of functionals
   V. Asgeirsson, H. Jonsson                     : NEB implementation
   FAccTs GmbH                                   : IRC, NEB, NEB-TS, DLPNO-Multilevel, CI-OPT
                                                   MM, QMMM, 2- and 3-layer-ONIOM, Crystal-QMMM,
                                                   LR-CPCM, SF, NACMEs, symmetry and pop. for TD-DFT,
                                                   nearIR, NL-DFT gradient (VV10), updates on ESD,
                                                   ML-optimized integration grids
   S Lehtola, MJT Oliveira, MAL Marques          : LibXC Library
   Liviu Ungur et al                             : ANISO software


 Your calculation uses the libint2 library for the computation of 2-el integrals
 For citations please refer to: http://libint.valeyev.net

 Your ORCA version has been built with support for libXC version: 5.1.0
 For citations please refer to: https://tddft.org/programs/libxc/

 This ORCA versions uses:
   CBLAS   interface :  Fast vector & matrix operations
   LAPACKE interface :  Fast linear algebra routines
   SCALAPACK package :  Parallel linear algebra routines
   Shared memory     :  Shared parallel matrices
   BLAS/LAPACK       :  OpenBLAS 0.3.15  USE64BITINT DYNAMIC_ARCH NO_AFFINITY Zen SINGLE_THREADED
        Core in use  :  Zen
   Copyright (c) 2011-2014, The OpenBLAS Project




***************************************
The coordinates will be read from file: input.xyz
***************************************


================================================================================

----- Orbital basis set information -----
Your calculation utilizes the basis: 6-31G(d)
   H-He, Li-Ne : W. J. Hehre, R. Ditchfield and J.A. Pople, J. Chem. Phys. 56, 2257 (1972).
                 Note: He and Ne are unpublished basis sets taken from the Gaussian program.
                 Note: Li and B from J. D. Dill and J. A. Pople, J. Chem. Phys. 62, 2921 (1975).
   Na - Ar     : M. M. Francl, W. J. Pietro, W. J. Hehre, J. S. Binkley, M. S. Gordon, 
                 D. J. DeFrees and J. A. Pople, J. Chem. Phys. 77, 3654 (1982).
   K - Zn      : V. A. Rassolov, J. A. Pople, M. A. Ratner, and T. L. Windus, J. Chem. Phys. 109, 1223 (1998).

================================================================================
                                        WARNINGS
                       Please study these warnings very carefully!
================================================================================


WARNING: Geometry Optimization
  ===> : Switching off AutoStart
         For restart on a previous wavefunction, please use MOREAD

WARNING: Post HF methods need fully converged wavefunctions
  ===> : Setting SCFConvForced true
         You can overwrite this default with %scf ConvForced false 


INFO   : the flag for use of the SHARK integral package has been found!

================================================================================
                                       INPUT FILE
================================================================================
NAME = input.orc
|  1> ! MP2 UHF 6-31G(d) OPTTS NumFreq NoFrozenCore VERYTIGHTSCF VERYTIGHTOPT
|  2> 
|  3> %geom
|  4> MaxIter 200
|  5> end
|  6> 
|  7> * XYZfile 0 2 input.xyz
|  8> 
|  9>                          ****END OF INPUT****
================================================================================

                       *****************************
                       * Geometry Optimization Run *
                       *****************************

Geometry optimization settings:
Update method            Update   .... Bofill
Choice of coordinates    CoordSys .... Z-matrix Internals
Initial Hessian          InHess   .... Almoef's Model

Convergence Tolerances:
Energy Change            TolE     ....  2.0000e-07 Eh
Max. Gradient            TolMAXG  ....  3.0000e-05 Eh/bohr
RMS Gradient             TolRMSG  ....  8.0000e-06 Eh/bohr
Max. Displacement        TolMAXD  ....  2.0000e-04 bohr
RMS Displacement         TolRMSD  ....  1.0000e-04 bohr
Strict Convergence                ....  False
------------------------------------------------------------------------------
                        ORCA OPTIMIZATION COORDINATE SETUP
------------------------------------------------------------------------------

The optimization will be done in new redundant internal coordinates
Making redundant internal coordinates   ...  (new redundants) done
Following TS mode number                ...     0
Evaluating the initial hessian          ...  (Almloef) done
Evaluating the coordinates              ...  done
Calculating the B-matrix                .... done
Calculating the G-matrix                .... done
Diagonalizing the G-matrix              .... done
The first mode is                       ....   17
The number of degrees of freedom        ....   18

    -----------------------------------------------------------------
                    Redundant Internal Coordinates


    -----------------------------------------------------------------
         Definition                    Initial Value    Approx d2E/dq
    -----------------------------------------------------------------
      1. B(C   1,C   0)                  1.4942         0.426041   
      2. B(F   2,C   1)                  1.3655         0.568946   
      3. B(O   3,C   1)                  1.3545         0.637556   
      4. B(H   4,C   0)                  1.0956         0.352827   
      5. B(H   5,C   0)                  1.0896         0.360576   
      6. B(H   6,C   0)                  1.0906         0.359348   
      7. B(H   7,C   1)                  1.2637         0.190261   
      8. B(H   7,O   3)                  1.2068         0.209997   
      9. A(H   4,C   0,H   5)          108.8473         0.289970   
     10. A(H   4,C   0,H   6)          108.8536         0.289814   
     11. A(C   1,C   0,H   4)          108.2546         0.330306   
     12. A(C   1,C   0,H   6)          110.6968         0.331309   
     13. A(C   1,C   0,H   5)          109.9522         0.331496   
     14. A(H   5,C   0,H   6)          110.1842         0.290804   
     15. A(F   2,C   1,O   3)          115.6152         0.422113   
     16. A(O   3,C   1,H   7)           54.7617         0.316981   
     17. A(C   0,C   1,F   2)          112.0446         0.395588   
     18. A(F   2,C   1,H   7)          117.5517         0.309940   
     19. A(C   0,C   1,H   7)          124.6279         0.298827   
     20. A(C   0,C   1,O   3)          120.7039         0.405358   
     21. A(C   1,O   3,H   7)           58.7870         0.319414   
     22. A(C   1,H   7,O   3)           66.4513         0.241824   
     23. D(F   2,C   1,C   0,H   5)    173.3803         0.014353   
     24. D(F   2,C   1,C   0,H   6)     51.4053         0.014353   
     25. D(O   3,C   1,C   0,H   4)     73.7024         0.014353   
     26. D(O   3,C   1,C   0,H   6)   -167.0644         0.014353   
     27. D(F   2,C   1,C   0,H   4)    -67.8279         0.014353   
     28. D(H   7,C   1,C   0,H   4)    139.7855         0.014353   
     29. D(H   7,C   1,C   0,H   5)     20.9937         0.014353   
     30. D(H   7,C   1,C   0,H   6)   -100.9813         0.014353   
     31. D(O   3,C   1,C   0,H   5)    -45.0894         0.014353   
     32. D(H   7,O   3,C   1,F   2)   -106.8194         0.033063   
     33. D(H   7,O   3,C   1,C   0)    112.9328         0.033063   
     34. D(O   3,H   7,C   1,F   2)    103.2071         0.027564   
     35. D(O   3,H   7,C   1,C   0)   -105.7773         0.027564   
    -----------------------------------------------------------------

Number of atoms                         .... 8
Number of degrees of freedom            .... 35

         *************************************************************
         *                GEOMETRY OPTIMIZATION CYCLE   1            *
         *************************************************************
---------------------------------
CARTESIAN COORDINATES (ANGSTROEM)
---------------------------------
  C      1.011099    0.068806   -0.022296
  C      0.404925    0.558666    1.252577
  F      0.972893    1.726522    1.674582
  O     -0.925804    0.440481    1.475863
  H      0.737813    0.765698   -0.822230
  H      0.618293   -0.917995   -0.265697
  H      2.098164    0.032045    0.056955
  H     -0.124459   -0.183512    2.127665

----------------------------
CARTESIAN COORDINATES (A.U.)
----------------------------
  NO LB      ZA    FRAG     MASS         X           Y           Z
   0 C     6.0000    0    12.011    1.910701    0.130024   -0.042134
   1 C     6.0000    0    12.011    0.765197    1.055726    2.367028
   2 F     9.0000    0    18.998    1.838501    3.262654    3.164501
   3 O     8.0000    0    15.999   -1.749515    0.832389    2.788976
   4 H     1.0000    0     1.008    1.394265    1.446959   -1.553790
   5 H     1.0000    0     1.008    1.168404   -1.734760   -0.502095
   6 H     1.0000    0     1.008    3.964955    0.060557    0.107628
   7 H     1.0000    0     1.008   -0.235194   -0.346787    4.020704

--------------------------------
INTERNAL COORDINATES (ANGSTROEM)
--------------------------------
 C      0   0   0     0.000000000000     0.00000000     0.00000000
 C      1   0   0     1.494227021229     0.00000000     0.00000000
 F      2   1   0     1.365489885329   112.04458752     0.00000000
 O      2   1   3     1.354496976126   120.70392033   141.53031089
 H      1   2   3     1.095553922494   108.25459185   292.17207167
 H      1   2   3     1.089640732754   109.95222391   173.38029015
 H      1   2   3     1.090569291705   110.69682471    51.40526659
 H      4   2   1     1.206800107809    58.78702376   112.93278101

---------------------------
INTERNAL COORDINATES (A.U.)
---------------------------
 C      0   0   0     0.000000000000     0.00000000     0.00000000
 C      1   0   0     2.823679852028     0.00000000     0.00000000
 F      2   1   0     2.580401921911   112.04458752     0.00000000
 O      2   1   3     2.559628334103   120.70392033   141.53031089
 H      1   2   3     2.070296878456   108.25459185   292.17207167
 H      1   2   3     2.059122569270   109.95222391   173.38029015
 H      1   2   3     2.060877291388   110.69682471    51.40526659
 H      4   2   1     2.280521702145    58.78702376   112.93278101

---------------------
BASIS SET INFORMATION
---------------------
There are 4 groups of distinct atoms

 Group   1 Type C   : 10s4p1d contracted to 3s2p1d pattern {631/31/1}
 Group   2 Type F   : 10s4p1d contracted to 3s2p1d pattern {631/31/1}
 Group   3 Type O   : 10s4p1d contracted to 3s2p1d pattern {631/31/1}
 Group   4 Type H   : 4s contracted to 2s pattern {31}

Atom   0C    basis set group =>   1
Atom   1C    basis set group =>   1
Atom   2F    basis set group =>   2
Atom   3O    basis set group =>   3
Atom   4H    basis set group =>   4
Atom   5H    basis set group =>   4
Atom   6H    basis set group =>   4
Atom   7H    basis set group =>   4
------------------------------------------------------------------------------
                           ORCA GTO INTEGRAL CALCULATION
------------------------------------------------------------------------------
------------------------------------------------------------------------------
                   ___                                                        
                  /   \      - P O W E R E D   B Y -                         
                 /     \                                                     
                 |  |  |   _    _      __       _____    __    __             
                 |  |  |  | |  | |    /  \     |  _  \  |  |  /  |          
                  \  \/   | |  | |   /    \    | | | |  |  | /  /          
                 / \  \   | |__| |  /  /\  \   | |_| |  |  |/  /          
                |  |  |   |  __  | /  /__\  \  |    /   |      \           
                |  |  |   | |  | | |   __   |  |    \   |  |\   \          
                \     /   | |  | | |  |  |  |  | |\  \  |  | \   \       
                 \___/    |_|  |_| |__|  |__|  |_| \__\ |__|  \__/        
                                                                              
                      - O R C A' S   B I G   F R I E N D -                    
                                      &                                       
                       - I N T E G R A L  F E E D E R -                       
                                                                              
 v1 FN, 2020, v2 2021                                                         
------------------------------------------------------------------------------


Reading SHARK input file input.SHARKINP.tmp ... ok
----------------------
SHARK INTEGRAL PACKAGE
----------------------

Number of atoms                             ...      8
Number of basis functions                   ...     64
Number of shells                            ...     32
Maximum angular momentum                    ...      2
Integral batch strategy                     ... SHARK/LIBINT Hybrid
RI-J (if used) integral strategy            ... SPLIT-RIJ (Revised 2003 algorithm where possible)
Printlevel                                  ...      1
Contraction scheme used                     ... SEGMENTED contraction
Coulomb Range Separation                    ... NOT USED
Exchange Range Separation                   ... NOT USED
Finite Nucleus Model                        ... NOT USED
Auxiliary Coulomb fitting basis             ... NOT available
Auxiliary J/K fitting basis                 ... NOT available
Auxiliary Correlation fitting basis         ... NOT available
Auxiliary 'external' fitting basis          ... NOT available
Integral threshold                          ...     1.000000e-12
Primitive cut-off                           ...     1.000000e-14
Primitive pair pre-selection threshold      ...     1.000000e-14

Calculating pre-screening integrals         ... done (  0.0 sec) Dimension = 32
Organizing shell pair data                  ... done (  0.0 sec)
Shell pair information
Total number of shell pairs                 ...       528
Shell pairs after pre-screening             ...       525
Total number of primitive shell pairs       ...      3022
Primitive shell pairs kept                  ...      2352
          la=0 lb=0:    207 shell pairs
          la=1 lb=0:    160 shell pairs
          la=1 lb=1:     36 shell pairs
          la=2 lb=0:     80 shell pairs
          la=2 lb=1:     32 shell pairs
          la=2 lb=2:     10 shell pairs

Calculating one electron integrals          ... done (  0.0 sec)
Calculating Nuclear repulsion               ... done (  0.0 sec) ENN=    124.714879451022 Eh

SHARK setup successfully completed in   0.2 seconds

Maximum memory used throughout the entire GTOINT-calculation: 7.5 MB
-------------------------------------------------------------------------------
                                 ORCA SCF
-------------------------------------------------------------------------------

------------
SCF SETTINGS
------------
Hamiltonian:
 Ab initio Hamiltonian  Method          .... Hartree-Fock(GTOs)


General Settings:
 Integral files         IntName         .... input
 Hartree-Fock type      HFTyp           .... UHF
 Total Charge           Charge          ....    0
 Multiplicity           Mult            ....    2
 Number of Electrons    NEL             ....   33
 Basis Dimension        Dim             ....   64
 Nuclear Repulsion      ENuc            ....    124.7148794510 Eh

Convergence Acceleration:
 DIIS                   CNVDIIS         .... on
   Start iteration      DIISMaxIt       ....    12
   Startup error        DIISStart       ....  0.200000
   # of expansion vecs  DIISMaxEq       ....     5
   Bias factor          DIISBfac        ....   1.050
   Max. coefficient     DIISMaxC        ....  10.000
 Trust-Rad. Augm. Hess. CNVTRAH         .... auto
   Auto Start mean grad. ratio tolernc. ....  1.125000
   Auto Start start iteration           ....    20
   Auto Start num. interpolation iter.  ....    10
   Max. Number of Micro iterations      ....    16
   Max. Number of Macro iterations      .... Maxiter - #DIIS iter
   Number of Davidson start vectors     ....     2
   Converg. threshold I  (grad. norm)   ....   2.000e-06
   Converg. threshold II (energy diff.) ....   1.000e-09
   Grad. Scal. Fac. for Micro threshold ....   0.100
   Minimum threshold for Micro iter.    ....   0.010
   NR start threshold (gradient norm)   ....   0.001
   Initial trust radius                 ....   0.400
   Minimum AH scaling param. (alpha)    ....   1.000
   Maximum AH scaling param. (alpha)    .... 1000.000
   Orbital update algorithm             .... Taylor
   White noise on init. David. guess    .... on
   Maximum white noise                  ....   0.010
   Quad. conv. algorithm                .... NR
 SOSCF                  CNVSOSCF        .... off
 Level Shifting         CNVShift        .... on
   Level shift para.    LevelShift      ....    0.2500
   Turn off err/grad.   ShiftErr        ....    0.0010
 Zerner damping         CNVZerner       .... off
 Static damping         CNVDamp         .... on
   Fraction old density DampFac         ....    0.7000
   Max. Damping (<1)    DampMax         ....    0.9800
   Min. Damping (>=0)   DampMin         ....    0.0000
   Turn off err/grad.   DampErr         ....    0.1000
 Fernandez-Rico         CNVRico         .... off

SCF Procedure:
 Maximum # iterations   MaxIter         ....   125
 SCF integral mode      SCFMode         .... Direct
   Integral package                     .... SHARK and LIBINT hybrid scheme
 Reset frequency        DirectResetFreq ....    20
 Integral Threshold     Thresh          ....  1.000e-12 Eh
 Primitive CutOff       TCut            ....  1.000e-14 Eh

Convergence Tolerance:
 Convergence Check Mode ConvCheckMode   .... Total+1el-Energy
 Convergence forced     ConvForced      .... 1
 Energy Change          TolE            ....  1.000e-09 Eh
 1-El. energy change                    ....  1.000e-06 Eh
 DIIS Error             TolErr          ....  1.000e-08


Diagonalization of the overlap matrix:
Smallest eigenvalue                        ... 6.885e-03
Time for diagonalization                   ...    0.001 sec
Threshold for overlap eigenvalues          ... 1.000e-08
Number of eigenvalues below threshold      ... 0
Time for construction of square roots      ...    0.022 sec
Total time needed                          ...    0.023 sec

Time for model grid setup =    0.091 sec

------------------------------
INITIAL GUESS: MODEL POTENTIAL
------------------------------
Loading Hartree-Fock densities                     ... done
Calculating cut-offs                               ... done
Initializing the effective Hamiltonian             ... done
Setting up the integral package (SHARK)            ... done
Starting the Coulomb interaction                   ... done (   0.1 sec)
Reading the grid                                   ... done
Mapping shells                                     ... done
Starting the XC term evaluation                    ... done (   0.0 sec)
Transforming the Hamiltonian                       ... done (   0.0 sec)
Diagonalizing the Hamiltonian                      ... done (   0.0 sec)
Back transforming the eigenvectors                 ... done (   0.0 sec)
Now organizing SCF variables                       ... done
                      ------------------
                      INITIAL GUESS DONE (   0.2 sec)
                      ------------------
--------------
SCF ITERATIONS
--------------
ITER       Energy         Delta-E        Max-DP      RMS-DP      [F,P]     Damp
               ***  Starting incremental Fock matrix formation  ***
  0   -252.0707240572   0.000000000000 0.02774991  0.00153913  0.2071979 0.7000
  1   -252.1249379242  -0.054213867006 0.02181055  0.00115564  0.1209534 0.7000
                               ***Turning on DIIS***
  2   -252.1577136328  -0.032775708588 0.04636418  0.00250381  0.0725381 0.0000
  3   -252.0229112900   0.134802342843 0.01810091  0.00089237  0.0440002 0.0000
  4   -252.2461320674  -0.223220777376 0.00743114  0.00039944  0.0095683 0.0000
  5   -252.2322477783   0.013884289092 0.00504312  0.00028869  0.0050867 0.0000
  6   -252.2325354721  -0.000287693870 0.00617852  0.00031027  0.0042438 0.0000
  7   -252.2382770605  -0.005741588404 0.00537062  0.00024688  0.0024727 0.0000
  8   -252.2349014664   0.003375594131 0.00344017  0.00014375  0.0012322 0.0000
  9   -252.2356265307  -0.000725064237 0.00190128  0.00007236  0.0004635 0.0000
 10   -252.2344286054   0.001197925250 0.00026898  0.00001328  0.0002133 0.0000
 11   -252.2343307624   0.000097843019 0.00015226  0.00000835  0.0001219 0.0000
 12   -252.2344672812  -0.000136518821 0.00011247  0.00000634  0.0000624 0.0000
 13   -252.2343323695   0.000134911735 0.00004117  0.00000198  0.0000226 0.0000
 14   -252.2343783916  -0.000046022103 0.00002774  0.00000129  0.0000120 0.0000
 15   -252.2343689745   0.000009417100 0.00001714  0.00000083  0.0000068 0.0000
 16   -252.2343598152   0.000009159299 0.00001067  0.00000045  0.0000038 0.0000
 17   -252.2343610405  -0.000001225339 0.00000356  0.00000015  0.0000028 0.0000
 18   -252.2343573675   0.000003672985 0.00000286  0.00000009  0.0000010 0.0000
 19   -252.2343556854   0.000001682173 0.00000066  0.00000003  0.0000006 0.0000
               *** Restarting incremental Fock matrix formation ***
                                   *** Resetting DIIS ***
 20   -252.2343561040  -0.000000418668 0.00000028  0.00000002  0.0000003 0.0000
 21   -252.2343563733  -0.000000269316 0.00000031  0.00000002  0.0000002 0.0000
 22   -252.2343564408  -0.000000067513 0.00000036  0.00000002  0.0000001 0.0000
 23   -252.2343560993   0.000000341515 0.00000016  0.00000001  0.0000001 0.0000
 24   -252.2343561851  -0.000000085728 0.00000015  0.00000000  0.0000001 0.0000
 25   -252.2343561209   0.000000064184 0.00000008  0.00000000  0.0000000 0.0000
                            ***DIIS convergence achieved***

               *****************************************************
               *                     SUCCESS                       *
               *           SCF CONVERGED AFTER  26 CYCLES          *
               *****************************************************


----------------
TOTAL SCF ENERGY
----------------

Total Energy       :         -252.23435611 Eh           -6863.64577 eV

Components:
Nuclear Repulsion  :          124.71487945 Eh            3393.66440 eV
Electronic Energy  :         -376.94923556 Eh          -10257.31017 eV
One Electron Energy:         -594.67810036 Eh          -16182.01379 eV
Two Electron Energy:          217.72886480 Eh            5924.70362 eV

Virial components:
Potential Energy   :         -504.36010654 Eh          -13724.33623 eV
Kinetic Energy     :          252.12575043 Eh            6860.69046 eV
Virial Ratio       :            2.00043076


---------------
SCF CONVERGENCE
---------------

  Last Energy change         ...    8.5114e-09  Tolerance :   1.0000e-09
  Last MAX-Density change    ...    2.5598e-08  Tolerance :   1.0000e-08
  Last RMS-Density change    ...    8.0967e-10  Tolerance :   1.0000e-09
  Last DIIS Error            ...    1.1166e-08  Tolerance :   1.0000e-08

             **** THE GBW FILE WAS UPDATED (input.gbw) ****
             **** DENSITY input.scfp WAS UPDATED ****
             **** ENERGY FILE WAS UPDATED (input.en.tmp) ****
----------------------
UHF SPIN CONTAMINATION
----------------------

Expectation value of <S**2>     :     0.794065
Ideal value S*(S+1) for S=0.5   :     0.750000
Deviation                       :     0.044065

             **** THE GBW FILE WAS UPDATED (input.gbw) ****
             **** DENSITY input.scfp WAS UPDATED ****
----------------
ORBITAL ENERGIES
----------------
                 SPIN UP ORBITALS
  NO   OCC          E(Eh)            E(eV) 
   0   1.0000     -26.303799      -715.7628 
   1   1.0000     -20.617895      -561.0415 
   2   1.0000     -11.396654      -310.1187 
   3   1.0000     -11.245649      -306.0097 
   4   1.0000      -1.624231       -44.1976 
   5   1.0000      -1.436703       -39.0947 
   6   1.0000      -1.040257       -28.3068 
   7   1.0000      -0.860527       -23.4161 
   8   1.0000      -0.779337       -21.2069 
   9   1.0000      -0.713670       -19.4200 
  10   1.0000      -0.705490       -19.1973 
  11   1.0000      -0.657810       -17.8999 
  12   1.0000      -0.596009       -16.2182 
  13   1.0000      -0.579816       -15.7776 
  14   1.0000      -0.566392       -15.4123 
  15   1.0000      -0.514927       -14.0119 
  16   1.0000      -0.377905       -10.2833 
  17   0.0000       0.195634         5.3235 
  18   0.0000       0.253156         6.8887 
  19   0.0000       0.291121         7.9218 
  20   0.0000       0.305317         8.3081 
  21   0.0000       0.382353        10.4043 
  22   0.0000       0.389404        10.5962 
  23   0.0000       0.461189        12.5496 
  24   0.0000       0.702954        19.1284 
  25   0.0000       0.762086        20.7374 
  26   0.0000       0.771010        20.9802 
  27   0.0000       0.782284        21.2870 
  28   0.0000       0.812180        22.1005 
  29   0.0000       0.899245        24.4697 
  30   0.0000       0.920863        25.0580 
  31   0.0000       1.007204        27.4074 
  32   0.0000       1.119329        30.4585 
  33   0.0000       1.134595        30.8739 
  34   0.0000       1.196304        32.5531 
  35   0.0000       1.198841        32.6221 
  36   0.0000       1.261951        34.3394 
  37   0.0000       1.304025        35.4843 
  38   0.0000       1.445023        39.3211 
  39   0.0000       1.516936        41.2779 
  40   0.0000       1.555894        42.3380 
  41   0.0000       1.637091        44.5475 
  42   0.0000       1.681115        45.7455 
  43   0.0000       1.759618        47.8817 
  44   0.0000       1.862971        50.6940 
  45   0.0000       1.978238        53.8306 
  46   0.0000       2.029135        55.2156 
  47   0.0000       2.065288        56.1993 
  48   0.0000       2.095792        57.0294 
  49   0.0000       2.114402        57.5358 
  50   0.0000       2.183437        59.4144 
  51   0.0000       2.224260        60.5252 
  52   0.0000       2.332542        63.4717 
  53   0.0000       2.352343        64.0105 
  54   0.0000       2.452776        66.7434 
  55   0.0000       2.497541        67.9615 
  56   0.0000       2.546069        69.2821 
  57   0.0000       2.563083        69.7450 
  58   0.0000       2.692395        73.2638 
  59   0.0000       2.857098        77.7456 
  60   0.0000       2.960197        80.5511 
  61   0.0000       3.151049        85.7444 
  62   0.0000       3.234070        88.0035 
  63   0.0000       3.388329        92.2011 

                 SPIN DOWN ORBITALS
  NO   OCC          E(Eh)            E(eV) 
   0   1.0000     -26.301248      -715.6933 
   1   1.0000     -20.591066      -560.3114 
   2   1.0000     -11.380527      -309.6799 
   3   1.0000     -11.245780      -306.0132 
   4   1.0000      -1.614485       -43.9324 
   5   1.0000      -1.364170       -37.1209 
   6   1.0000      -1.022422       -27.8215 
   7   1.0000      -0.817302       -22.2399 
   8   1.0000      -0.707084       -19.2407 
   9   1.0000      -0.697355       -18.9760 
  10   1.0000      -0.685237       -18.6463 
  11   1.0000      -0.596051       -16.2194 
  12   1.0000      -0.583326       -15.8731 
  13   1.0000      -0.565969       -15.4008 
  14   1.0000      -0.541366       -14.7313 
  15   1.0000      -0.489911       -13.3311 
  16   0.0000       0.131344         3.5740 
  17   0.0000       0.222491         6.0543 
  18   0.0000       0.261700         7.1212 
  19   0.0000       0.292592         7.9618 
  20   0.0000       0.318192         8.6584 
  21   0.0000       0.402789        10.9604 
  22   0.0000       0.407533        11.0895 
  23   0.0000       0.487804        13.2738 
  24   0.0000       0.714852        19.4521 
  25   0.0000       0.775955        21.1148 
  26   0.0000       0.782349        21.2888 
  27   0.0000       0.794144        21.6098 
  28   0.0000       0.833488        22.6804 
  29   0.0000       0.918927        25.0053 
  30   0.0000       0.929140        25.2832 
  31   0.0000       1.043526        28.3958 
  32   0.0000       1.125916        30.6377 
  33   0.0000       1.144401        31.1407 
  34   0.0000       1.201231        32.6872 
  35   0.0000       1.210190        32.9309 
  36   0.0000       1.286700        35.0129 
  37   0.0000       1.371022        37.3074 
  38   0.0000       1.456616        39.6365 
  39   0.0000       1.521899        41.4130 
  40   0.0000       1.574672        42.8490 
  41   0.0000       1.652315        44.9618 
  42   0.0000       1.688737        45.9529 
  43   0.0000       1.777478        48.3676 
  44   0.0000       1.886166        51.3252 
  45   0.0000       1.997505        54.3549 
  46   0.0000       2.051535        55.8251 
  47   0.0000       2.088628        56.8344 
  48   0.0000       2.111653        57.4610 
  49   0.0000       2.123929        57.7951 
  50   0.0000       2.193205        59.6802 
  51   0.0000       2.234162        60.7946 
  52   0.0000       2.347406        63.8762 
  53   0.0000       2.380452        64.7754 
  54   0.0000       2.477171        67.4072 
  55   0.0000       2.513583        68.3981 
  56   0.0000       2.549590        69.3779 
  57   0.0000       2.576475        70.1094 
  58   0.0000       2.720104        74.0178 
  59   0.0000       2.877335        78.2963 
  60   0.0000       2.980466        81.1026 
  61   0.0000       3.163848        86.0927 
  62   0.0000       3.248774        88.4036 
  63   0.0000       3.394659        92.3734 

                    ********************************
                    * MULLIKEN POPULATION ANALYSIS *
                    ********************************

--------------------------------------------
MULLIKEN ATOMIC CHARGES AND SPIN POPULATIONS
--------------------------------------------
   0 C :   -0.554521   -0.050900
   1 C :    0.585432    0.624820
   2 F :   -0.420699    0.011109
   3 O :   -0.571628    0.540563
   4 H :    0.203047    0.040484
   5 H :    0.196061    0.001147
   6 H :    0.200996    0.001041
   7 H :    0.361312   -0.168265
Sum of atomic charges         :    0.0000000
Sum of atomic spin populations:    1.0000000

-----------------------------------------------------
MULLIKEN REDUCED ORBITAL CHARGES AND SPIN POPULATIONS
-----------------------------------------------------
CHARGE
  0 C s       :     3.336788  s :     3.336788
      pz      :     0.973261  p :     3.171026
      px      :     1.090259
      py      :     1.107506
      dz2     :     0.010759  d :     0.046708
      dxz     :     0.005930
      dyz     :     0.011404
      dx2y2   :     0.012897
      dxy     :     0.005718
  1 C s       :     3.066169  s :     3.066169
      pz      :     0.926101  p :     2.227308
      px      :     0.616474
      py      :     0.684733
      dz2     :     0.019037  d :     0.121092
      dxz     :     0.022135
      dyz     :     0.019907
      dx2y2   :     0.032566
      dxy     :     0.027445
  2 F s       :     3.977221  s :     3.977221
      pz      :     1.905863  p :     5.426289
      px      :     1.874259
      py      :     1.646167
      dz2     :     0.002146  d :     0.017189
      dxz     :     0.001292
      dyz     :     0.004116
      dx2y2   :     0.004379
      dxy     :     0.005256
  3 O s       :     3.964071  s :     3.964071
      pz      :     1.599590  p :     4.572729
      px      :     1.292820
      py      :     1.680319
      dz2     :     0.003342  d :     0.034828
      dxz     :     0.010739
      dyz     :     0.001259
      dx2y2   :     0.010125
      dxy     :     0.009363
  4 H s       :     0.796953  s :     0.796953
  5 H s       :     0.803939  s :     0.803939
  6 H s       :     0.799004  s :     0.799004
  7 H s       :     0.638688  s :     0.638688

SPIN
  0 C s       :    -0.013055  s :    -0.013055
      pz      :    -0.024163  p :    -0.040807
      px      :    -0.004985
      py      :    -0.011660
      dz2     :     0.000720  d :     0.002963
      dxz     :     0.000440
      dyz     :     0.001560
      dx2y2   :     0.000002
      dxy     :     0.000241
  1 C s       :     0.160474  s :     0.160474
      pz      :     0.262846  p :     0.463658
      px      :     0.042634
      py      :     0.158179
      dz2     :    -0.000234  d :     0.000688
      dxz     :    -0.000980
      dyz     :     0.002062
      dx2y2   :    -0.000061
      dxy     :    -0.000100
  2 F s       :    -0.000578  s :    -0.000578
      pz      :     0.007011  p :     0.011560
      px      :    -0.004753
      py      :     0.009302
      dz2     :    -0.000120  d :     0.000127
      dxz     :     0.000003
      dyz     :     0.000339
      dx2y2   :    -0.000212
      dxy     :     0.000117
  3 O s       :    -0.000942  s :    -0.000942
      pz      :     0.269228  p :     0.547750
      px      :     0.093969
      py      :     0.184552
      dz2     :    -0.000014  d :    -0.006244
      dxz     :    -0.003125
      dyz     :    -0.000221
      dx2y2   :    -0.000283
      dxy     :    -0.002600
  4 H s       :     0.040484  s :     0.040484
  5 H s       :     0.001147  s :     0.001147
  6 H s       :     0.001041  s :     0.001041
  7 H s       :    -0.168265  s :    -0.168265


                     *******************************
                     * LOEWDIN POPULATION ANALYSIS *
                     *******************************

-------------------------------------------
LOEWDIN ATOMIC CHARGES AND SPIN POPULATIONS
-------------------------------------------
   0 C :   -0.377447   -0.007695
   1 C :    0.148232    0.491380
   2 F :   -0.192504    0.031928
   3 O :   -0.355775    0.550169
   4 H :    0.149863    0.029770
   5 H :    0.147377    0.001123
   6 H :    0.148420    0.001462
   7 H :    0.331835   -0.098137

----------------------------------------------------
LOEWDIN REDUCED ORBITAL CHARGES AND SPIN POPULATIONS
----------------------------------------------------
CHARGE
  0 C s       :     2.977090  s :     2.977090
      pz      :     1.067100  p :     3.321907
      px      :     1.123909
      py      :     1.130898
      dz2     :     0.020342  d :     0.078451
      dxz     :     0.011204
      dyz     :     0.019088
      dx2y2   :     0.019608
      dxy     :     0.008208
  1 C s       :     2.887777  s :     2.887777
      pz      :     1.005023  p :     2.693944
      px      :     0.870402
      py      :     0.818520
      dz2     :     0.043740  d :     0.270047
      dxz     :     0.045956
      dyz     :     0.041190
      dx2y2   :     0.073622
      dxy     :     0.065538
  2 F s       :     3.751157  s :     3.751157
      pz      :     1.894582  p :     5.408792
      px      :     1.861423
      py      :     1.652787
      dz2     :     0.004498  d :     0.032555
      dxz     :     0.002306
      dyz     :     0.008177
      dx2y2   :     0.009124
      dxy     :     0.008451
  3 O s       :     3.650662  s :     3.650662
      pz      :     1.595946  p :     4.644901
      px      :     1.379420
      py      :     1.669535
      dz2     :     0.006880  d :     0.060212
      dxz     :     0.017634
      dyz     :     0.001906
      dx2y2   :     0.019536
      dxy     :     0.014257
  4 H s       :     0.850137  s :     0.850137
  5 H s       :     0.852623  s :     0.852623
  6 H s       :     0.851580  s :     0.851580
  7 H s       :     0.668165  s :     0.668165

SPIN
  0 C s       :     0.000413  s :     0.000413
      pz      :    -0.005998  p :    -0.015251
      px      :    -0.002442
      py      :    -0.006811
      dz2     :     0.003223  d :     0.007143
      dxz     :     0.000636
      dyz     :     0.002739
      dx2y2   :     0.000020
      dxy     :     0.000525
  1 C s       :     0.063216  s :     0.063216
      pz      :     0.232416  p :     0.417922
      px      :     0.051133
      py      :     0.134373
      dz2     :    -0.000763  d :     0.010242
      dxz     :     0.003128
      dyz     :     0.004190
      dx2y2   :     0.000415
      dxy     :     0.003272
  2 F s       :     0.002075  s :     0.002075
      pz      :     0.010831  p :     0.024406
      px      :    -0.003460
      py      :     0.017034
      dz2     :     0.001130  d :     0.005448
      dxz     :     0.000484
      dyz     :     0.001451
      dx2y2   :     0.002137
      dxy     :     0.000245
  3 O s       :     0.008076  s :     0.008076
      pz      :     0.267510  p :     0.541091
      px      :     0.092936
      py      :     0.180645
      dz2     :     0.000956  d :     0.001002
      dxz     :     0.000032
      dyz     :    -0.000704
      dx2y2   :     0.001405
      dxy     :    -0.000687
  4 H s       :     0.029770  s :     0.029770
  5 H s       :     0.001123  s :     0.001123
  6 H s       :     0.001462  s :     0.001462
  7 H s       :    -0.098137  s :    -0.098137


                      *****************************
                      * MAYER POPULATION ANALYSIS *
                      *****************************

  NA   - Mulliken gross atomic population
  ZA   - Total nuclear charge
  QA   - Mulliken gross atomic charge
  VA   - Mayer's total valence
  BVA  - Mayer's bonded valence
  FA   - Mayer's free valence

  ATOM       NA         ZA         QA         VA         BVA        FA
  0 C      6.5545     6.0000    -0.5545     3.7541     3.7523     0.0018
  1 C      5.4146     6.0000     0.5854     3.5609     3.2014     0.3596
  2 F      9.4207     9.0000    -0.4207     0.8434     0.8411     0.0023
  3 O      8.5716     8.0000    -0.5716     1.7470     1.4175     0.3295
  4 H      0.7970     1.0000     0.2030     0.9202     0.9186     0.0017
  5 H      0.8039     1.0000     0.1961     0.9255     0.9255     0.0000
  6 H      0.7990     1.0000     0.2010     0.9210     0.9210     0.0000
  7 H      0.6387     1.0000     0.3613     0.8622     0.8337     0.0286

  Mayer bond orders larger than 0.100000
B(  0-C ,  1-C ) :   0.9467 B(  0-C ,  4-H ) :   0.9323 B(  0-C ,  5-H ) :   0.9425 
B(  0-C ,  6-H ) :   0.9395 B(  1-C ,  2-F ) :   0.8143 B(  1-C ,  3-O ) :   1.0176 
B(  1-C ,  7-H ) :   0.4459 B(  3-O ,  7-H ) :   0.3791 

-------
TIMINGS
-------

Total SCF time: 0 days 0 hours 0 min 7 sec 

Total time                  ....       7.195 sec
Sum of individual times     ....       6.719 sec  ( 93.4%)

Fock matrix formation       ....       6.160 sec  ( 85.6%)
Diagonalization             ....       0.100 sec  (  1.4%)
Density matrix formation    ....       0.001 sec  (  0.0%)
Population analysis         ....       0.113 sec  (  1.6%)
Initial guess               ....       0.149 sec  (  2.1%)
Orbital Transformation      ....       0.000 sec  (  0.0%)
Orbital Orthonormalization  ....       0.000 sec  (  0.0%)
DIIS solution               ....       0.104 sec  (  1.4%)

Maximum memory used throughout the entire SCF-calculation: 228.6 MB

------------------------------------------------------------------------------
                                ORCA  MP2 
------------------------------------------------------------------------------

MP2 will be done in the AO integral direct mode
The Q1-step will be done using symmetric double matrices
Dimension of the basis                    ...   64
Memory devoted for MP2                    ...  256 MB   
Memory needed for all in one shot         ...   18 MB
Number of MOs that can be treated together...  251      
MP2 density construction                  ... relaxed
The MP2 gradient is requested => amplitudes will be stored on disk
Total number of MOs              ...   17
Number of MOs treated per batch  ...   17 
Number of batches necessary      ...    1 
OPERATORS   0/  0 PASS   0
OPERATORS   0/  1 PASS   0
Total number of MOs              ...   17
Number of MOs treated per batch  ...   16 
Number of batches necessary      ...    1 
OPERATORS   1/  0 PASS   0
OPERATORS   1/  1 PASS   0

Correlation energy components
 E2 and T2 for alpha/alpha pairs :     -0.083524397 Eh
 E2 and T2 for beta/beta   pairs :     -0.077609246 Eh
 E2 and T2 for alpha/beta  pairs :     -0.439064828 Eh

-----------------------------------------------
 MP2 CORRELATION ENERGY   :     -0.600198472 Eh
-----------------------------------------------


---------------------
MP2 DENSITY FORMATION
---------------------

Completing the external part of the density      ... done
Storing the unrelaxed density                    ... done

Calculating G(D)                                 ... done
Completing the Lagrangian                        ... done
Solving the Z-vector equations                   ... 

------------------------------------------------------------------------------
                           ORCA CP-SCF CALCULATION
------------------------------------------------------------------------------

Input orbitals are from        ... input.gbw
Input Perturbation             ... input.pin.tmp
Wavefunction output            ... input.pout.tmp
Perturbation mode              ... Real perturbation (singlet)
Solver                         ... POPLE
Max. number of iterations      ... 128
Convergence tolerance          ... 3.000e-05
Integral handling              ... Direct
Number of perturbations        ... 1
Number of operators            ... 2
Orbital ranges used for CP-SCF:
 Operator 0:  Orbitals   0... 16  to  17... 63
 Operator 1:  Orbitals   0... 15  to  16... 63
Variables per perturbation     ... 1567
Memory available               ... 1017.7 MB
Memory needed per perturbation ...   3.2 MB
Perturbations treated per batch... 1
Number of batches              ... 1
     CP-SCF ITERATION   0:   8.0349e-02 (   0.2 sec)
     CP-SCF ITERATION   1:   3.8842e-02 (   0.2 sec)
     CP-SCF ITERATION   2:   1.6457e-02 (   0.2 sec)
     CP-SCF ITERATION   3:   6.8271e-03 (   0.2 sec)
     CP-SCF ITERATION   4:   2.7974e-03 (   0.2 sec)
     CP-SCF ITERATION   5:   1.4697e-03 (   0.2 sec)
     CP-SCF ITERATION   6:   5.7797e-04 (   0.2 sec)
     CP-SCF ITERATION   7:   2.5423e-04 (   0.2 sec)
     CP-SCF ITERATION   8:   1.2905e-04 (   0.2 sec)
     CP-SCF ITERATION   9:   7.3668e-05 (   0.2 sec)
     CP-SCF ITERATION  10:   3.6114e-05 (   0.2 sec)
     CP-SCF ITERATION  11:   1.5351e-05 (   0.2 sec)
                    *** THE CP-SCF HAS CONVERGED ***
                                                 ... done
Finalizing the relaxed density                   ... done
Transforming P to the AO basis                   ... done
Storing the relaxed density                      ... done

------------------------------------
ENERGY WEIGHTED DENSITY FINALIZATION
------------------------------------

Gathering the parts of the W-matrix              ...                                                                                                           done
Forming the Z-density                            ... done
Transforming Z to the AO basis                   ... done
Calculating G(Z)                                 ... done
Finalizing the W-matrix                          ...                                                                                                           done
Transforming W to the AO basis and storing       ... done

                *********************************************
                * UNRELAXED MP2 DENSITY POPULATION ANALYSIS *
                *********************************************

------------------------------------------------------------------------------
                           ORCA POPULATION ANALYSIS
------------------------------------------------------------------------------
Input electron density              ... input.pmp2ur
Input spin density                  ... input.rmp2ur
BaseName (.gbw .S,...)              ... input

                    ********************************
                    * MULLIKEN POPULATION ANALYSIS *
                    ********************************

------------------------------------------
MULLIKEN ATOMIC CHARGES AND SPIN DENSITIES
------------------------------------------
   0 C :   -0.559477   -0.049465
   1 C :    0.561455    0.618103
   2 F :   -0.408343    0.012464
   3 O :   -0.560207    0.537061
   4 H :    0.204837    0.040320
   5 H :    0.197834    0.001133
   6 H :    0.202825    0.001020
   7 H :    0.361076   -0.160636
Sum of atomic charges       :    0.0000000
Sum of atomic spin densities:    1.0000000

---------------------------------------------------
MULLIKEN REDUCED ORBITAL CHARGES AND SPIN DENSITIES
---------------------------------------------------
CHARGE
  0 C s       :     3.333810  s :     3.333810
      pz      :     0.971044  p :     3.163290
      px      :     1.087514
      py      :     1.104732
      dz2     :     0.013850  d :     0.062377
      dxz     :     0.009075
      dyz     :     0.014486
      dx2y2   :     0.015990
      dxy     :     0.008975
  1 C s       :     3.067242  s :     3.067242
      pz      :     0.925454  p :     2.238584
      px      :     0.622164
      py      :     0.690965
      dz2     :     0.021522  d :     0.132718
      dxz     :     0.024797
      dyz     :     0.022296
      dx2y2   :     0.034367
      dxy     :     0.029735
  2 F s       :     3.975188  s :     3.975188
      pz      :     1.896497  p :     5.396641
      px      :     1.864816
      py      :     1.635328
      dz2     :     0.005958  d :     0.036515
      dxz     :     0.005058
      dyz     :     0.008037
      dx2y2   :     0.008331
      dxy     :     0.009130
  3 O s       :     3.958714  s :     3.958714
      pz      :     1.590830  p :     4.545697
      px      :     1.284685
      py      :     1.670182
      dz2     :     0.007532  d :     0.055797
      dxz     :     0.014981
      dyz     :     0.005471
      dx2y2   :     0.014063
      dxy     :     0.013749
  4 H s       :     0.795163  s :     0.795163
  5 H s       :     0.802166  s :     0.802166
  6 H s       :     0.797175  s :     0.797175
  7 H s       :     0.638924  s :     0.638924

SPIN
  0 C s       :    -0.013018  s :    -0.013018
      pz      :    -0.023329  p :    -0.039354
      px      :    -0.004785
      py      :    -0.011241
      dz2     :     0.000745  d :     0.002908
      dxz     :     0.000410
      dyz     :     0.001518
      dx2y2   :     0.000000
      dxy     :     0.000235
  1 C s       :     0.160053  s :     0.160053
      pz      :     0.257511  p :     0.455345
      px      :     0.042234
      py      :     0.155600
      dz2     :     0.000282  d :     0.002705
      dxz     :    -0.000426
      dyz     :     0.002501
      dx2y2   :     0.000136
      dxy     :     0.000212
  2 F s       :    -0.000544  s :    -0.000544
      pz      :     0.007714  p :     0.012853
      px      :    -0.004630
      py      :     0.009769
      dz2     :    -0.000102  d :     0.000155
      dxz     :     0.000001
      dyz     :     0.000341
      dx2y2   :    -0.000197
      dxy     :     0.000112
  3 O s       :     0.001125  s :     0.001125
      pz      :     0.265654  p :     0.539249
      px      :     0.092100
      py      :     0.181495
      dz2     :     0.000563  d :    -0.003313
      dxz     :    -0.002334
      dyz     :     0.000365
      dx2y2   :     0.000096
      dxy     :    -0.002004
  4 H s       :     0.040320  s :     0.040320
  5 H s       :     0.001133  s :     0.001133
  6 H s       :     0.001020  s :     0.001020
  7 H s       :    -0.160636  s :    -0.160636


                     *******************************
                     * LOEWDIN POPULATION ANALYSIS *
                     *******************************

-----------------------------------------
LOEWDIN ATOMIC CHARGES AND SPIN DENSITIES
-----------------------------------------
   0 C :   -0.385308   -0.006351
   1 C :    0.129218    0.486264
   2 F :   -0.182090    0.033140
   3 O :   -0.346681    0.546583
   4 H :    0.152497    0.029622
   5 H :    0.149943    0.001118
   6 H :    0.151026    0.001450
   7 H :    0.331394   -0.091826

--------------------------------------------------
LOEWDIN REDUCED ORBITAL CHARGES AND SPIN DENSITIES
--------------------------------------------------
CHARGE
  0 C s       :     2.977489  s :     2.977489
      pz      :     1.063184  p :     3.311473
      px      :     1.120615
      py      :     1.127674
      dz2     :     0.023855  d :     0.096346
      dxz     :     0.014818
      dyz     :     0.022680
      dx2y2   :     0.023204
      dxy     :     0.011790
  1 C s       :     2.889473  s :     2.889473
      pz      :     1.002948  p :     2.698258
      px      :     0.872558
      py      :     0.822753
      dz2     :     0.046555  d :     0.283051
      dxz     :     0.048862
      dyz     :     0.043905
      dx2y2   :     0.075930
      dxy     :     0.067799
  2 F s       :     3.749806  s :     3.749806
      pz      :     1.885053  p :     5.379613
      px      :     1.852097
      py      :     1.642464
      dz2     :     0.008414  d :     0.052671
      dxz     :     0.006126
      dyz     :     0.012234
      dx2y2   :     0.013213
      dxy     :     0.012682
  3 O s       :     3.646567  s :     3.646567
      pz      :     1.587119  p :     4.617518
      px      :     1.370977
      py      :     1.659422
      dz2     :     0.011331  d :     0.082595
      dxz     :     0.022010
      dyz     :     0.006235
      dx2y2   :     0.024295
      dxy     :     0.018723
  4 H s       :     0.847503  s :     0.847503
  5 H s       :     0.850057  s :     0.850057
  6 H s       :     0.848974  s :     0.848974
  7 H s       :     0.668606  s :     0.668606

SPIN
  0 C s       :     0.000561  s :     0.000561
      pz      :    -0.005233  p :    -0.013934
      px      :    -0.002242
      py      :    -0.006459
      dz2     :     0.003222  d :     0.007022
      dxz     :     0.000602
      dyz     :     0.002666
      dx2y2   :     0.000017
      dxy     :     0.000513
  1 C s       :     0.063241  s :     0.063241
      pz      :     0.227991  p :     0.410570
      px      :     0.050359
      py      :     0.132220
      dz2     :    -0.000145  d :     0.012454
      dxz     :     0.003666
      dyz     :     0.004641
      dx2y2   :     0.000705
      dxy     :     0.003587
  2 F s       :     0.002146  s :     0.002146
      pz      :     0.011482  p :     0.025607
      px      :    -0.003328
      py      :     0.017453
      dz2     :     0.001124  d :     0.005387
      dxz     :     0.000474
      dyz     :     0.001436
      dx2y2   :     0.002109
      dxy     :     0.000244
  3 O s       :     0.010079  s :     0.010079
      pz      :     0.263730  p :     0.532855
      px      :     0.091558
      py      :     0.177566
      dz2     :     0.001503  d :     0.003649
      dxz     :     0.000698
      dyz     :    -0.000120
      dx2y2   :     0.001739
      dxy     :    -0.000170
  4 H s       :     0.029622  s :     0.029622
  5 H s       :     0.001118  s :     0.001118
  6 H s       :     0.001450  s :     0.001450
  7 H s       :    -0.091826  s :    -0.091826


                      *****************************
                      * MAYER POPULATION ANALYSIS *
                      *****************************

  NA   - Mulliken gross atomic population
  ZA   - Total nuclear charge
  QA   - Mulliken gross atomic charge
  VA   - Mayer's total valence
  BVA  - Mayer's bonded valence
  FA   - Mayer's free valence

  ATOM       NA         ZA         QA         VA         BVA        FA
  0 C      6.5595     6.0000    -0.5595     3.8485     3.6033     0.2452
  1 C      5.4385     6.0000     0.5615     3.6297     3.0208     0.6089
  2 F      9.4083     9.0000    -0.4083     1.1170     0.7928     0.3242
  3 O      8.5602     8.0000    -0.5602     1.9920     1.3220     0.6700
  4 H      0.7952     1.0000     0.2048     0.9226     0.8844     0.0382
  5 H      0.8022     1.0000     0.1978     0.9279     0.8914     0.0365
  6 H      0.7972     1.0000     0.2028     0.9233     0.8871     0.0362
  7 H      0.6389     1.0000     0.3611     0.8644     0.7931     0.0713

  Mayer bond orders larger than 0.100000
B(  0-C ,  1-C ) :   0.8994 B(  0-C ,  4-H ) :   0.8993 B(  0-C ,  5-H ) :   0.9094 
B(  0-C ,  6-H ) :   0.9066 B(  1-C ,  2-F ) :   0.7717 B(  1-C ,  3-O ) :   0.9477 
B(  1-C ,  7-H ) :   0.4262 B(  3-O ,  7-H ) :   0.3593 


                *******************************************
                * RELAXED MP2 DENSITY POPULATION ANALYSIS *
                *******************************************

------------------------------------------------------------------------------
                           ORCA POPULATION ANALYSIS
------------------------------------------------------------------------------
Input electron density              ... input.pmp2re
Input spin density                  ... input.rmp2re
BaseName (.gbw .S,...)              ... input

                    ********************************
                    * MULLIKEN POPULATION ANALYSIS *
                    ********************************

------------------------------------------
MULLIKEN ATOMIC CHARGES AND SPIN DENSITIES
------------------------------------------
   0 C :   -0.556288   -0.017737
   1 C :    0.441851    0.522297
   2 F :   -0.324749    0.032873
   3 O :   -0.536058    0.410753
   4 H :    0.204912    0.036930
   5 H :    0.194299   -0.000888
   6 H :    0.197515   -0.000984
   7 H :    0.378518    0.016755
Sum of atomic charges       :    0.0000000
Sum of atomic spin densities:    1.0000000

---------------------------------------------------
MULLIKEN REDUCED ORBITAL CHARGES AND SPIN DENSITIES
---------------------------------------------------
CHARGE
  0 C s       :     3.306590  s :     3.306590
      pz      :     0.992217  p :     3.194978
      px      :     1.091047
      py      :     1.111713
      dz2     :     0.012183  d :     0.054720
      dxz     :     0.007992
      dyz     :     0.012564
      dx2y2   :     0.013961
      dxy     :     0.008020
  1 C s       :     3.096709  s :     3.096709
      pz      :     0.926434  p :     2.331354
      px      :     0.681203
      py      :     0.723717
      dz2     :     0.020427  d :     0.130086
      dxz     :     0.025444
      dyz     :     0.021332
      dx2y2   :     0.032260
      dxy     :     0.030623
  2 F s       :     3.964283  s :     3.964283
      pz      :     1.872961  p :     5.324827
      px      :     1.844710
      py      :     1.607156
      dz2     :     0.005877  d :     0.035638
      dxz     :     0.005041
      dyz     :     0.007960
      dx2y2   :     0.008245
      dxy     :     0.008516
  3 O s       :     3.946482  s :     3.946482
      pz      :     1.602266  p :     4.536407
      px      :     1.265087
      py      :     1.669054
      dz2     :     0.007214  d :     0.053169
      dxz     :     0.014353
      dyz     :     0.005180
      dx2y2   :     0.012945
      dxy     :     0.013476
  4 H s       :     0.795088  s :     0.795088
  5 H s       :     0.805701  s :     0.805701
  6 H s       :     0.802485  s :     0.802485
  7 H s       :     0.621482  s :     0.621482

SPIN
  0 C s       :    -0.008049  s :    -0.008049
      pz      :    -0.006421  p :    -0.012264
      px      :    -0.000344
      py      :    -0.005500
      dz2     :     0.000856  d :     0.002576
      dxz     :     0.000316
      dyz     :     0.001309
      dx2y2   :    -0.000063
      dxy     :     0.000159
  1 C s       :     0.129914  s :     0.129914
      pz      :     0.221483  p :     0.386339
      px      :     0.035406
      py      :     0.129450
      dz2     :     0.000675  d :     0.006044
      dxz     :     0.000486
      dyz     :     0.003401
      dx2y2   :     0.000812
      dxy     :     0.000670
  2 F s       :    -0.000326  s :    -0.000326
      pz      :     0.016026  p :     0.033097
      px      :    -0.001879
      py      :     0.018950
      dz2     :    -0.000051  d :     0.000103
      dxz     :    -0.000026
      dyz     :     0.000281
      dx2y2   :    -0.000110
      dxy     :     0.000010
  3 O s       :    -0.005540  s :    -0.005540
      pz      :     0.208336  p :     0.417568
      px      :     0.083741
      py      :     0.125491
      dz2     :     0.000446  d :    -0.001275
      dxz     :    -0.001198
      dyz     :     0.000676
      dx2y2   :    -0.000159
      dxy     :    -0.001040
  4 H s       :     0.036930  s :     0.036930
  5 H s       :    -0.000888  s :    -0.000888
  6 H s       :    -0.000984  s :    -0.000984
  7 H s       :     0.016755  s :     0.016755


                     *******************************
                     * LOEWDIN POPULATION ANALYSIS *
                     *******************************

-----------------------------------------
LOEWDIN ATOMIC CHARGES AND SPIN DENSITIES
-----------------------------------------
   0 C :   -0.411504    0.013726
   1 C :    0.092732    0.431207
   2 F :   -0.141669    0.049587
   3 O :   -0.361916    0.446945
   4 H :    0.160743    0.028096
   5 H :    0.156175   -0.000077
   6 H :    0.155869    0.000228
   7 H :    0.349570    0.030288

--------------------------------------------------
LOEWDIN REDUCED ORBITAL CHARGES AND SPIN DENSITIES
--------------------------------------------------
CHARGE
  0 C s       :     2.979854  s :     2.979854
      pz      :     1.074819  p :     3.343186
      px      :     1.129847
      py      :     1.138520
      dz2     :     0.021925  d :     0.088464
      dxz     :     0.013715
      dyz     :     0.020551
      dx2y2   :     0.021417
      dxy     :     0.010855
  1 C s       :     2.902624  s :     2.902624
      pz      :     0.990025  p :     2.720942
      px      :     0.897218
      py      :     0.833699
      dz2     :     0.046045  d :     0.283702
      dxz     :     0.051119
      dyz     :     0.042739
      dx2y2   :     0.073630
      dxy     :     0.070169
  2 F s       :     3.753015  s :     3.753015
      pz      :     1.867665  p :     5.335068
      px      :     1.840871
      py      :     1.626533
      dz2     :     0.008591  d :     0.053586
      dxz     :     0.006162
      dyz     :     0.012342
      dx2y2   :     0.013448
      dxy     :     0.013043
  3 O s       :     3.645154  s :     3.645154
      pz      :     1.604506  p :     4.635395
      px      :     1.364341
      py      :     1.666547
      dz2     :     0.011366  d :     0.081367
      dxz     :     0.021350
      dyz     :     0.005826
      dx2y2   :     0.024296
      dxy     :     0.018529
  4 H s       :     0.839257  s :     0.839257
  5 H s       :     0.843825  s :     0.843825
  6 H s       :     0.844131  s :     0.844131
  7 H s       :     0.650430  s :     0.650430

SPIN
  0 C s       :     0.004465  s :     0.004465
      pz      :     0.005524  p :     0.003354
      px      :     0.000688
      py      :    -0.002857
      dz2     :     0.003092  d :     0.005907
      dxz     :     0.000353
      dyz     :     0.002228
      dx2y2   :    -0.000088
      dxy     :     0.000322
  1 C s       :     0.049424  s :     0.049424
      pz      :     0.207223  p :     0.362889
      px      :     0.042125
      py      :     0.113541
      dz2     :     0.000689  d :     0.018893
      dxz     :     0.004793
      dyz     :     0.006788
      dx2y2   :     0.002437
      dxy     :     0.004187
  2 F s       :     0.002116  s :     0.002116
      pz      :     0.019242  p :     0.042872
      px      :    -0.000932
      py      :     0.024561
      dz2     :     0.001031  d :     0.004600
      dxz     :     0.000358
      dyz     :     0.001250
      dx2y2   :     0.001882
      dxy     :     0.000078
  3 O s       :     0.011498  s :     0.011498
      pz      :     0.214669  p :     0.428910
      px      :     0.085495
      py      :     0.128746
      dz2     :     0.001241  d :     0.006537
      dxz     :     0.002291
      dyz     :     0.000574
      dx2y2   :     0.001161
      dxy     :     0.001270
  4 H s       :     0.028096  s :     0.028096
  5 H s       :    -0.000077  s :    -0.000077
  6 H s       :     0.000228  s :     0.000228
  7 H s       :     0.030288  s :     0.030288


                      *****************************
                      * MAYER POPULATION ANALYSIS *
                      *****************************

  NA   - Mulliken gross atomic population
  ZA   - Total nuclear charge
  QA   - Mulliken gross atomic charge
  VA   - Mayer's total valence
  BVA  - Mayer's bonded valence
  FA   - Mayer's free valence

  ATOM       NA         ZA         QA         VA         BVA        FA
  0 C      6.5563     6.0000    -0.5563     3.8606     3.6198     0.2408
  1 C      5.5581     6.0000     0.4419     3.8287     3.3313     0.4975
  2 F      9.3247     9.0000    -0.3247     1.2397     0.9255     0.3142
  3 O      8.5361     8.0000    -0.5361     2.0358     1.5432     0.4927
  4 H      0.7951     1.0000     0.2049     0.9251     0.8881     0.0370
  5 H      0.8057     1.0000     0.1943     0.9316     0.8954     0.0362
  6 H      0.8025     1.0000     0.1975     0.9270     0.8912     0.0359
  7 H      0.6215     1.0000     0.3785     0.8563     0.8424     0.0139

  Mayer bond orders larger than 0.100000
B(  0-C ,  1-C ) :   0.9193 B(  0-C ,  4-H ) :   0.8923 B(  0-C ,  5-H ) :   0.9055 
B(  0-C ,  6-H ) :   0.9033 B(  1-C ,  2-F ) :   0.8808 B(  1-C ,  3-O ) :   1.1066 
B(  1-C ,  7-H ) :   0.4357 B(  3-O ,  7-H ) :   0.3924 


----------------------------------
MP2 DERIVATIVE INTEGRAL GENERATION
----------------------------------


Input Wavefunction Amplitudes       ... input.mp2tbb.tmp
Input Correlated Electron Density   ... input.pmp2re
Input Energy Weighted Density       ... input.wmp2.tmp
Input SCF Electron Density          ... input.scfp

One-Electron Terms    ...
                        ... One-Electron Terms done
Prescreening matrices              ... done

Batch handling in the gradient evaluation:
Memory available                      ...  256.0 MB
Memory per occupied orbital in Q2     ...    1.0 MB
Memory per occupied orbital in Q3     ...    0.0 MB
Total memory requirement per |i>      ...    1.0 MB
Max. Number of orbitals possible      ...    245
Number of orbitals treated per batch  ...     33
Number of batches to be done          ...      1
Batch   0: i=    0 ...    32

---------------------------------------
MP2 TOTAL ENERGY:     -252.834554584 Eh
---------------------------------------

The final MP2 gradient
  0:   0.00000157  -0.00005245   0.00000948
  1:  -0.00002528   0.00014905   0.00007363
  2:  -0.00002313  -0.00000772  -0.00004820
  3:  -0.00001550  -0.00003143  -0.00001450
  4:   0.00003427   0.00002351   0.00000840
  5:  -0.00003123   0.00001689  -0.00001509
  6:  -0.00000155  -0.00003884   0.00000597
  7:   0.00006084  -0.00005901  -0.00001969

-----------------------------------
NORM OF THE MP2 GRADIENT:  0.000219
-----------------------------------

Maximum memory used throughout the entire MP2-calculation: 111.3 MB

-------------------------   --------------------
FINAL SINGLE POINT ENERGY      -252.834554584426
-------------------------   --------------------

------------------------------------------------------------------------------
                         ORCA GEOMETRY RELAXATION STEP
------------------------------------------------------------------------------

Reading the OPT-File                    .... done
Getting information on internals        .... done
Copying old internal coords+grads       .... done
Making the new internal coordinates     .... (new redundants).... done
Validating the new internal coordinates .... (new redundants).... done
Calculating the B-matrix                .... done
Calculating the G,G- and P matrices     .... done
Transforming gradient to internals      .... done
Projecting the internal gradient        .... done
Number of atoms                         ....   8
Number of internal coordinates          ....  35
Current Energy                          ....  -252.834554584 Eh
Current gradient norm                   ....     0.000218808 Eh/bohr
Maximum allowed component of the step   ....  0.300
Current trust radius                    ....  0.300
Evaluating the initial hessian          ....  (Almloef) done
Projecting the Hessian                  .... done
Diagonalizing the Hessian               .... done
Dimension of the hessian                ....  35
Lowest eigenvalues of the Hessian:
  0.014353210  0.048909548  0.102293512  0.109591197  0.114580747
Hessian has   0 negative eigenvalues
Taking P-RFO step
Searching for lambda that maximizes along the lowest mode
TS mode is mode number   0 with eigenvalue   0.01435321 and components:
   1.   -0.00000000
   2.    0.00000000
   3.    0.00000000
   4.    0.00000000
   5.    0.00000000
   6.    0.00000000
   7.   -0.00000000
   8.   -0.00000000
   9.    0.00000000
  10.    0.00000000
  11.   -0.00000000
  12.    0.00000000
  13.    0.00000000
  14.    0.00000000
  15.   -0.00000000
  16.   -0.00000000
  17.   -0.00000000
  18.    0.00000000
  19.    0.00000000
  20.   -0.00000000
  21.   -0.00000000
  22.    0.00000000
  23.    0.33333333
  24.    0.33333333
  25.    0.33333333
  26.    0.33333333
  27.    0.33333333
  28.    0.33333333
  29.    0.33333333
  30.    0.33333333
  31.    0.33333333
  32.   -0.00000000
  33.    0.00000000
  34.   -0.00000000
  35.    0.00000000

Lambda that maximizes along the TS mode:       0.01435362
Searching for lambda that minimizes along all other modes
In cycle   1: lambdaN =  -0.00000005   step =   0.00000005
In cycle   2: lambdaN =  -0.00000005   step =   0.00000000
Lambda that minimizes along all other modes:  -0.00000005
Calculated stepsize too large (   0.9000 >    0.3000). Scaled with    0.3333.
The final length of the internal step   ....       0.3000
Converting the step to cartesian space:
 Initial RMS(Int)=    0.0507092553
Transforming coordinates:
 Iter   0:  RMS(Cart)=    0.0510444601 RMS(Int)=    0.0506784598
 Iter   1:  RMS(Cart)=    0.0013057786 RMS(Int)=    0.0011163745
 Iter   2:  RMS(Cart)=    0.0000666270 RMS(Int)=    0.0000657976
 Iter   3:  RMS(Cart)=    0.0000033997 RMS(Int)=    0.0000029136
 Iter   4:  RMS(Cart)=    0.0000001737 RMS(Int)=    0.0000001713
 Iter   5:  RMS(Cart)=    0.0000000089 RMS(Int)=    0.0000000076
done
Storing new coordinates                 .... done

                                .--------------------.
          ----------------------|Geometry convergence|-------------------------
          Item                value                   Tolerance       Converged
          ---------------------------------------------------------------------
          RMS gradient        0.0000217891            0.0000080000      NO
          MAX gradient        0.0000470936            0.0000300000      NO
          RMS step            0.0507092553            0.0001000000      NO
          MAX step            0.0999999833            0.0002000000      NO
          ........................................................
          Max(Bonds)      0.0000      Max(Angles)    0.01
          Max(Dihed)        5.73      Max(Improp)    0.00
          ---------------------------------------------------------------------

The optimization has not yet converged - more geometry cycles are needed


    ---------------------------------------------------------------------------
                         Redundant Internal Coordinates
                            (Angstroem and degrees)

        Definition                    Value    dE/dq     Step     New-Value  comp.(TS mode)
    ----------------------------------------------------------------------------
     1. B(C   1,C   0)                1.4942  0.000010 -0.0000    1.4942   
     2. B(F   2,C   1)                1.3655 -0.000031  0.0000    1.3655   
     3. B(O   3,C   1)                1.3545 -0.000002 -0.0000    1.3545   
     4. B(H   4,C   0)                1.0956  0.000000 -0.0000    1.0956   
     5. B(H   5,C   0)                1.0896 -0.000001  0.0000    1.0896   
     6. B(H   6,C   0)                1.0906  0.000000 -0.0000    1.0906   
     7. B(H   7,C   1)                1.2637 -0.000013  0.0000    1.2637   
     8. B(H   7,O   3)                1.2068  0.000028 -0.0000    1.2068   
     9. A(H   4,C   0,H   5)          108.85  0.000005   -0.00    108.85   
    10. A(H   4,C   0,H   6)          108.85 -0.000004    0.00    108.85   
    11. A(C   1,C   0,H   4)          108.25 -0.000003    0.00    108.25   
    12. A(C   1,C   0,H   6)          110.70  0.000013   -0.00    110.70   
    13. A(C   1,C   0,H   5)          109.95 -0.000009    0.00    109.95   
    14. A(H   5,C   0,H   6)          110.18 -0.000001    0.00    110.18   
    15. A(F   2,C   1,O   3)          115.62  0.000021   -0.00    115.61   
    16. A(O   3,C   1,H   7)           54.76  0.000016   -0.00     54.76   
    17. A(C   0,C   1,F   2)          112.04  0.000011   -0.00    112.04   
    18. A(F   2,C   1,H   7)          117.55  0.000032   -0.00    117.55   
    19. A(C   0,C   1,H   7)          124.63 -0.000047    0.01    124.63   
    20. A(C   0,C   1,O   3)          120.70 -0.000033    0.00    120.71   
    21. A(C   1,O   3,H   7)           58.79 -0.000011    0.00     58.79   
    22. A(C   1,H   7,O   3)           66.45 -0.000005    0.00     66.45   
    23. D(F   2,C   1,C   0,H   5)    173.38  0.000025    5.73    179.11          0.33
    24. D(F   2,C   1,C   0,H   6)     51.41  0.000024    5.73     57.13          0.33
    25. D(O   3,C   1,C   0,H   4)     73.70  0.000032    5.73     79.43          0.33
    26. D(O   3,C   1,C   0,H   6)   -167.06  0.000033    5.73   -161.33          0.33
    27. D(F   2,C   1,C   0,H   4)    -67.83  0.000023    5.73    -62.10          0.33
    28. D(H   7,C   1,C   0,H   4)    139.79  0.000020    5.73    145.52          0.33
    29. D(H   7,C   1,C   0,H   5)     20.99  0.000021    5.73     26.72          0.33
    30. D(H   7,C   1,C   0,H   6)   -100.98  0.000020    5.73    -95.25          0.33
    31. D(O   3,C   1,C   0,H   5)    -45.09  0.000033    5.73    -39.36          0.33
    32. D(H   7,O   3,C   1,F   2)   -106.82 -0.000033    0.00   -106.82   
    33. D(H   7,O   3,C   1,C   0)    112.93 -0.000038    0.01    112.94   
    34. D(O   3,H   7,C   1,F   2)    103.21  0.000013    0.00    103.21   
    35. D(O   3,H   7,C   1,C   0)   -105.78  0.000010    0.00   -105.78   
    ----------------------------------------------------------------------------

         *************************************************************
         *                GEOMETRY OPTIMIZATION CYCLE   2            *
         *************************************************************
---------------------------------
CARTESIAN COORDINATES (ANGSTROEM)
---------------------------------
  C      1.010953    0.069113   -0.022434
  C      0.402103    0.562770    1.249693
  F      0.930508    1.759858    1.640023
  O     -0.920403    0.399420    1.492512
  H      0.787680    0.793446   -0.813463
  H      0.577130   -0.892998   -0.293464
  H      2.093171   -0.020922    0.077756
  H     -0.088218   -0.179976    2.146795

----------------------------
CARTESIAN COORDINATES (A.U.)
----------------------------
  NO LB      ZA    FRAG     MASS         X           Y           Z
   0 C     6.0000    0    12.011    1.910424    0.130604   -0.042393
   1 C     6.0000    0    12.011    0.759864    1.063481    2.361577
   2 F     9.0000    0    18.998    1.758405    3.325650    3.099195
   3 O     8.0000    0    15.999   -1.739309    0.754795    2.820438
   4 H     1.0000    0     1.008    1.488500    1.499396   -1.537223
   5 H     1.0000    0     1.008    1.090617   -1.687522   -0.554567
   6 H     1.0000    0     1.008    3.955521   -0.039537    0.146937
   7 H     1.0000    0     1.008   -0.166707   -0.340106    4.056854

--------------------------------
INTERNAL COORDINATES (ANGSTROEM)
--------------------------------
 C      0   0   0     0.000000000000     0.00000000     0.00000000
 C      1   0   0     1.494222688218     0.00000000     0.00000000
 F      2   1   0     1.365499530148   112.04388119     0.00000000
 O      2   1   3     1.354498324559   120.70546061   141.52949573
 H      1   2   3     1.095553738125   108.25473664   297.90191525
 H      1   2   3     1.089641061141   109.95277672   179.11008295
 H      1   2   3     1.090569233797   110.69607773    57.13509553
 H      4   2   1     1.206780180074    58.78787412   112.93771010

---------------------------
INTERNAL COORDINATES (A.U.)
---------------------------
 C      0   0   0     0.000000000000     0.00000000     0.00000000
[...]
AutoCI program output          ... >input.lastautoci

	<< Calculating on displaced geometry   1 (of  48) >>
	<< Calculating on displaced geometry   2 (of  48) >>
	<< Calculating on displaced geometry   3 (of  48) >>
	<< Calculating on displaced geometry   4 (of  48) >>
	<< Calculating on displaced geometry   5 (of  48) >>
	<< Calculating on displaced geometry   6 (of  48) >>
	<< Calculating on displaced geometry   7 (of  48) >>
	<< Calculating on displaced geometry   8 (of  48) >>
	<< Calculating on displaced geometry   9 (of  48) >>
	<< Calculating on displaced geometry  10 (of  48) >>
	<< Calculating on displaced geometry  11 (of  48) >>
	<< Calculating on displaced geometry  12 (of  48) >>
	<< Calculating on displaced geometry  13 (of  48) >>
	<< Calculating on displaced geometry  14 (of  48) >>
	<< Calculating on displaced geometry  15 (of  48) >>
	<< Calculating on displaced geometry  16 (of  48) >>
	<< Calculating on displaced geometry  17 (of  48) >>
	<< Calculating on displaced geometry  18 (of  48) >>
	<< Calculating on displaced geometry  19 (of  48) >>
	<< Calculating on displaced geometry  20 (of  48) >>
	<< Calculating on displaced geometry  21 (of  48) >>
	<< Calculating on displaced geometry  22 (of  48) >>
	<< Calculating on displaced geometry  23 (of  48) >>
	<< Calculating on displaced geometry  24 (of  48) >>
	<< Calculating on displaced geometry  25 (of  48) >>
	<< Calculating on displaced geometry  26 (of  48) >>
	<< Calculating on displaced geometry  27 (of  48) >>
	<< Calculating on displaced geometry  28 (of  48) >>
	<< Calculating on displaced geometry  29 (of  48) >>
	<< Calculating on displaced geometry  30 (of  48) >>
	<< Calculating on displaced geometry  31 (of  48) >>
	<< Calculating on displaced geometry  32 (of  48) >>
	<< Calculating on displaced geometry  33 (of  48) >>
	<< Calculating on displaced geometry  34 (of  48) >>
	<< Calculating on displaced geometry  35 (of  48) >>
	<< Calculating on displaced geometry  36 (of  48) >>
	<< Calculating on displaced geometry  37 (of  48) >>
	<< Calculating on displaced geometry  38 (of  48) >>
	<< Calculating on displaced geometry  39 (of  48) >>
	<< Calculating on displaced geometry  40 (of  48) >>
	<< Calculating on displaced geometry  41 (of  48) >>
	<< Calculating on displaced geometry  42 (of  48) >>
	<< Calculating on displaced geometry  43 (of  48) >>
	<< Calculating on displaced geometry  44 (of  48) >>
	<< Calculating on displaced geometry  45 (of  48) >>
	<< Calculating on displaced geometry  46 (of  48) >>
	<< Calculating on displaced geometry  47 (of  48) >>
	<< Calculating on displaced geometry  48 (of  48) >>

-----------------------
VIBRATIONAL FREQUENCIES
-----------------------

Scaling factor for frequencies =  1.000000000 (already applied!)

   0:         0.00 cm**-1
   1:         0.00 cm**-1
   2:         0.00 cm**-1
   3:         0.00 cm**-1
   4:         0.00 cm**-1
   5:         0.00 cm**-1
   6:     -2264.03 cm**-1 ***imaginary mode***
   7:       208.01 cm**-1
   8:       389.01 cm**-1
   9:       481.55 cm**-1
  10:       546.32 cm**-1
  11:       717.56 cm**-1
  12:       885.20 cm**-1
  13:      1027.72 cm**-1
  14:      1123.85 cm**-1
  15:      1260.18 cm**-1
  16:      1349.33 cm**-1
  17:      1466.13 cm**-1
  18:      1539.59 cm**-1
  19:      1543.16 cm**-1
  20:      2579.28 cm**-1
  21:      3113.62 cm**-1
  22:      3209.33 cm**-1
  23:      3246.33 cm**-1


------------
NORMAL MODES
------------

These modes are the cartesian displacements weighted by the diagonal matrix
M(i,i)=1/sqrt(m[i]) where m[i] is the mass of the displaced atom
Thus, these vectors are normalized but *not* orthogonal

                  0          1          2          3          4          5    
      0       0.000000   0.000000   0.000000   0.000000   0.000000   0.000000
      1       0.000000   0.000000   0.000000   0.000000   0.000000   0.000000
      2       0.000000   0.000000   0.000000   0.000000   0.000000   0.000000
      3       0.000000   0.000000   0.000000   0.000000   0.000000   0.000000
      4       0.000000   0.000000   0.000000   0.000000   0.000000   0.000000
      5       0.000000   0.000000   0.000000   0.000000   0.000000   0.000000
      6       0.000000   0.000000   0.000000   0.000000   0.000000   0.000000
      7       0.000000   0.000000   0.000000   0.000000   0.000000   0.000000
      8       0.000000   0.000000   0.000000   0.000000   0.000000   0.000000
      9       0.000000   0.000000   0.000000   0.000000   0.000000   0.000000
     10       0.000000   0.000000   0.000000   0.000000   0.000000   0.000000
     11       0.000000   0.000000   0.000000   0.000000   0.000000   0.000000
     12       0.000000   0.000000   0.000000   0.000000   0.000000   0.000000
     13       0.000000   0.000000   0.000000   0.000000   0.000000   0.000000
     14       0.000000   0.000000   0.000000   0.000000   0.000000   0.000000
     15       0.000000   0.000000   0.000000   0.000000   0.000000   0.000000
     16       0.000000   0.000000   0.000000   0.000000   0.000000   0.000000
     17       0.000000   0.000000   0.000000   0.000000   0.000000   0.000000
     18       0.000000   0.000000   0.000000   0.000000   0.000000   0.000000
     19       0.000000   0.000000   0.000000   0.000000   0.000000   0.000000
     20       0.000000   0.000000   0.000000   0.000000   0.000000   0.000000
     21       0.000000   0.000000   0.000000   0.000000   0.000000   0.000000
     22       0.000000   0.000000   0.000000   0.000000   0.000000   0.000000
     23       0.000000   0.000000   0.000000   0.000000   0.000000   0.000000
                  6          7          8          9         10         11    
      0      -0.002162  -0.018217   0.161874   0.104443   0.030840   0.025003
      1       0.004338  -0.006609   0.123501  -0.127295  -0.015576  -0.015528
      2      -0.004764  -0.003011   0.031188  -0.171731  -0.046134  -0.053859
      3       0.058931   0.003974  -0.129363  -0.011638   0.171715  -0.011706
      4       0.020739   0.000180  -0.070546   0.081797  -0.276464  -0.015093
      5      -0.034219   0.004507  -0.030469  -0.221055   0.154795  -0.037885
      6      -0.001257   0.019647   0.032306  -0.137005  -0.256091   0.003160
      7       0.004989  -0.018412  -0.118851  -0.017851  -0.062660  -0.004449
      8      -0.000802   0.033690  -0.148221   0.133655  -0.054338   0.033016
      9       0.020961  -0.003756  -0.116173   0.046972   0.172348  -0.022146
     10      -0.030967   0.028138   0.062334   0.116441   0.262272  -0.020338
     11       0.034995  -0.039431   0.161268   0.175222  -0.005777   0.000370
     12       0.004605  -0.518545   0.220606   0.325347  -0.280417   0.024094
     13      -0.009556  -0.322640   0.159495  -0.427442   0.347279   0.025335
     14      -0.030304  -0.106099   0.042410  -0.508402   0.377920  -0.019866
     15       0.000149   0.397327   0.570885   0.137170   0.009878   0.023447
     16       0.000432  -0.243378   0.024700  -0.214679   0.076172  -0.002044
     17       0.000494   0.284817  -0.221369   0.106100  -0.374977  -0.102517
     18      -0.001238   0.010937   0.150189   0.090285   0.054560   0.025391
     19       0.001485   0.518491   0.477228  -0.191703   0.057150  -0.001515
     20      -0.003356  -0.205902   0.375863   0.067901  -0.384897  -0.053242
     21      -0.988971  -0.030676  -0.094056   0.177970  -0.106505   0.060565
     22       0.106304   0.024552  -0.041759  -0.135748   0.017430   0.749741
     23      -0.042645   0.000235   0.028437  -0.285450   0.203002   0.640677
                 12         13         14         15         16         17    
      0      -0.119960   0.152578  -0.030302   0.065684  -0.105269   0.067925
      1       0.159789   0.057740   0.122331   0.114760  -0.000630  -0.051301
      2       0.205379   0.007621  -0.115523   0.095839   0.016691  -0.148519
      3       0.014713   0.057455   0.028821  -0.106228   0.428864  -0.041434
      4       0.127842   0.082250  -0.093318  -0.351652  -0.066485   0.040955
      5      -0.148660   0.038045   0.162278  -0.254193  -0.131812   0.042204
      6      -0.091787  -0.021470   0.001874   0.055223  -0.019910  -0.001172
      7      -0.204806  -0.072198   0.008278   0.136067   0.009769  -0.011074
      8      -0.062445  -0.037643  -0.021348   0.045027   0.008658  -0.003521
      9       0.196186  -0.107136  -0.016765   0.014903  -0.241865   0.022052
     10       0.006712  -0.005752   0.007796   0.028999   0.003655  -0.003954
     11      -0.035391   0.030354  -0.022929   0.024173   0.030930  -0.003064
     12       0.066687  -0.243106   0.328192  -0.352774   0.102749  -0.316628
     13      -0.117871  -0.104168  -0.341120  -0.087981   0.276107   0.338051
     14      -0.101621  -0.000157  -0.620844   0.073560   0.206335   0.338844
     15      -0.213880  -0.366841   0.042749  -0.425006   0.080756  -0.299377
     16       0.110555   0.166847  -0.048106   0.183407  -0.115606  -0.052536
     17       0.586497   0.377398   0.413895   0.581489   0.269922   0.467130
     18      -0.143966   0.182986  -0.059578   0.040700  -0.126204   0.019007
     19       0.014481  -0.314519  -0.215189  -0.215369   0.210502   0.137206
     20       0.428363  -0.656963   0.270101  -0.015876   0.498846   0.549639
     21       0.161297   0.029401  -0.062950  -0.057154   0.300977  -0.046596
     22       0.318987   0.035784  -0.021052  -0.082097   0.186585  -0.027956
     23       0.149555  -0.036731   0.145999   0.015409  -0.257465   0.026202
                 18         19         20         21         22         23    
      0      -0.031351   0.033649   0.003307  -0.008365  -0.050650  -0.072493
      1       0.039315   0.035545   0.001521  -0.007985   0.068396  -0.058372
      2      -0.018822   0.006929  -0.003236   0.052347  -0.028568  -0.014967
      3      -0.021207   0.030796  -0.038785   0.000438   0.000106  -0.001724
      4       0.013076   0.017384  -0.039233  -0.001635   0.000580  -0.001235
      5      -0.015236   0.002780   0.051783  -0.000087  -0.002257   0.000309
      6       0.001561  -0.003166   0.000953   0.000082   0.000038   0.000264
      7      -0.000974  -0.003486   0.000156   0.000228  -0.000199   0.000467
      8       0.001634  -0.000698  -0.001252  -0.000090  -0.000002   0.000177
      9       0.007821  -0.009931   0.021594  -0.000379   0.000361   0.000570
     10      -0.001808  -0.001881  -0.012569   0.000242  -0.000072   0.000047
     11       0.001446   0.000383   0.012234  -0.000309  -0.000110   0.000092
     12      -0.079436  -0.599247   0.005952  -0.203471   0.145397  -0.026166
     13       0.289265  -0.324417  -0.005236   0.505280  -0.376868   0.023540
     14       0.238388  -0.083092   0.001913  -0.569133   0.435455  -0.040627
     15       0.597377   0.041373  -0.010671  -0.150201  -0.184012   0.273386
     16      -0.272584   0.127075  -0.004448  -0.382720  -0.429184   0.701900
     17       0.217961  -0.434262   0.008580  -0.084627  -0.113429   0.169098
     18      -0.037820  -0.020177   0.002289   0.445268   0.637484   0.623919
     19      -0.599591  -0.360953   0.002640  -0.018056  -0.007900  -0.027822
     20      -0.098215   0.431266  -0.009503   0.040614   0.041488   0.046234
     21      -0.007407   0.027430   0.064464   0.007331  -0.003054  -0.000819
     22       0.005681   0.023182   0.652963   0.001996  -0.003037   0.003088
     23      -0.006039  -0.022527  -0.750055  -0.002965   0.005580  -0.004844


-----------
IR SPECTRUM
-----------

 Mode   freq       eps      Int      T**2         TX        TY        TZ
       cm**-1   L/(mol*cm) km/mol    a.u.
----------------------------------------------------------------------------
  7:    208.01   0.000059    0.30  0.000089  (-0.008317 -0.001750  0.004082)
  8:    389.01   0.000035    0.17  0.000028  ( 0.004403 -0.000684 -0.002810)
  9:    481.55   0.004742   23.96  0.003073  ( 0.026603 -0.017796 -0.045261)
 10:    546.32   0.000655    3.31  0.000374  (-0.000980 -0.018572  0.005320)
 11:    717.56   0.003788   19.14  0.001647  ( 0.004420  0.032791  0.023504)
 12:    885.20   0.005388   27.23  0.001899  ( 0.013889  0.036119  0.020045)
 13:   1027.72   0.008842   44.68  0.002685  ( 0.034850  0.038311  0.001573)
 14:   1123.85   0.003649   18.44  0.001013  (-0.015961 -0.008432  0.026218)
 15:   1260.18   0.032070  162.07  0.007942  (-0.039610 -0.073922 -0.030137)
 16:   1349.33   0.027088  136.89  0.006265  ( 0.069512  0.017902 -0.033352)
 17:   1466.13   0.006424   32.47  0.001367  (-0.014563  0.015401  0.030301)
 18:   1539.59   0.001424    7.19  0.000289  ( 0.007593 -0.013338  0.007281)
 19:   1543.16   0.000259    1.31  0.000052  (-0.002535 -0.005803 -0.003497)
 20:   2579.28   0.009225   46.62  0.001116  (-0.024727  0.015189 -0.016554)
 21:   3113.62   0.000621    3.14  0.000062  (-0.002423 -0.000910  0.007452)
 22:   3209.33   0.000837    4.23  0.000081  (-0.005972  0.006561 -0.001633)
 23:   3246.33   0.000805    4.07  0.000077  (-0.006972 -0.005141 -0.001526)

* The epsilon (eps) is given for a Dirac delta lineshape.
** The dipole moment derivative (T) already includes vibrational overlap.

The first frequency considered to be a vibration is 7
The total number of vibrations considered is 17


--------------------------
THERMOCHEMISTRY AT 298.15K
--------------------------

Temperature         ... 298.15 K
Pressure            ... 1.00 atm
Total Mass          ... 63.05 AMU

Throughout the following assumptions are being made:
  (1) The electronic state is orbitally nondegenerate
      but the spin degeneracy is treated
  (2) There are no thermally accessible electronically excited states
  (3) Hindered rotations indicated by low frequency modes are not
      treated as such but are treated as vibrations and this may
      cause some error
  (4) All equations used are the standard statistical mechanics
      equations for an ideal gas
  (5) All vibrations are strictly harmonic

freq.     208.01  E(vib)   ...       0.34 
freq.     389.01  E(vib)   ...       0.20 
freq.     481.55  E(vib)   ...       0.15 
freq.     546.32  E(vib)   ...       0.12 
freq.     717.56  E(vib)   ...       0.07 
freq.     885.20  E(vib)   ...       0.04 
freq.    1027.72  E(vib)   ...       0.02 
freq.    1123.85  E(vib)   ...       0.01 
freq.    1260.18  E(vib)   ...       0.01 
freq.    1349.33  E(vib)   ...       0.01 
freq.    1466.13  E(vib)   ...       0.00 
freq.    1539.59  E(vib)   ...       0.00 
freq.    1543.16  E(vib)   ...       0.00 
freq.    2579.28  E(vib)   ...       0.00 
freq.    3113.62  E(vib)   ...       0.00 
freq.    3209.33  E(vib)   ...       0.00 
freq.    3246.33  E(vib)   ...       0.00 

------------
INNER ENERGY
------------

The inner energy is: U= E(el) + E(ZPE) + E(vib) + E(rot) + E(trans)
    E(el)   - is the total energy from the electronic structure calculation
              = E(kin-el) + E(nuc-el) + E(el-el) + E(nuc-nuc)
    E(ZPE)  - the the zero temperature vibrational energy from the frequency calculation
    E(vib)  - the the finite temperature correction to E(ZPE) due to population
              of excited vibrational states
    E(rot)  - is the rotational thermal energy
    E(trans)- is the translational thermal energy

Summary of contributions to the inner energy U:
Electronic energy                ...   -252.83455610 Eh
Zero point energy                ...      0.05623920 Eh      35.29 kcal/mol
Thermal vibrational correction   ...      0.00155369 Eh       0.97 kcal/mol
Thermal rotational correction    ...      0.00141627 Eh       0.89 kcal/mol
Thermal translational correction ...      0.00141627 Eh       0.89 kcal/mol
-----------------------------------------------------------------------
Total thermal energy                   -252.77393066 Eh


Summary of corrections to the electronic energy:
(perhaps to be used in another calculation)
Total thermal correction                  0.00438624 Eh       2.75 kcal/mol
Non-thermal (ZPE) correction              0.05623920 Eh      35.29 kcal/mol
-----------------------------------------------------------------------
Total correction                          0.06062544 Eh      38.04 kcal/mol


--------
ENTHALPY
--------

The enthalpy is H = U + kB*T
                kB is Boltzmann's constant
Total free energy                 ...   -252.77393066 Eh 
Thermal Enthalpy correction       ...      0.00094421 Eh       0.59 kcal/mol
-----------------------------------------------------------------------
Total Enthalpy                    ...   -252.77298645 Eh


Note: Only C1 symmetry has been detected, increase convergence thresholds 
      if your molecule has a higher symmetry. Symmetry factor of 1.0 is   
      used for the rotational entropy correction. 
 

Note: Rotational entropy computed according to Herzberg 
Infrared and Raman Spectra, Chapter V,1, Van Nostrand Reinhold, 1945 
Point Group:  C1, Symmetry Number:   1  
Rotational constants in cm-1:     0.325416     0.304708     0.168208 

Vibrational entropy computed according to the QRRHO of S. Grimme
Chem.Eur.J. 2012 18 9955


-------
ENTROPY
-------

The entropy contributions are T*S = T*(S(el)+S(vib)+S(rot)+S(trans))
     S(el)   - electronic entropy
     S(vib)  - vibrational entropy
     S(rot)  - rotational entropy
     S(trans)- translational entropy
The entropies will be listed as multiplied by the temperature to get
units of energy

Electronic entropy                ...      0.00065446 Eh      0.41 kcal/mol
Vibrational entropy               ...      0.00237225 Eh      1.49 kcal/mol
Rotational entropy                ...      0.01144336 Eh      7.18 kcal/mol
Translational entropy             ...      0.01821802 Eh     11.43 kcal/mol
-----------------------------------------------------------------------
Final entropy term                ...      0.03268809 Eh     20.51 kcal/mol

In case the symmetry of your molecule has not been determined correctly
or in case you have a reason to use a different symmetry number we print 
out the resulting rotational entropy values for sn=1,12 :
 --------------------------------------------------------
|  sn= 1 | S(rot)=       0.01144336 Eh      7.18 kcal/mol|
|  sn= 2 | S(rot)=       0.01078891 Eh      6.77 kcal/mol|
|  sn= 3 | S(rot)=       0.01040607 Eh      6.53 kcal/mol|
|  sn= 4 | S(rot)=       0.01013445 Eh      6.36 kcal/mol|
|  sn= 5 | S(rot)=       0.00992376 Eh      6.23 kcal/mol|
|  sn= 6 | S(rot)=       0.00975162 Eh      6.12 kcal/mol|
|  sn= 7 | S(rot)=       0.00960607 Eh      6.03 kcal/mol|
|  sn= 8 | S(rot)=       0.00947999 Eh      5.95 kcal/mol|
|  sn= 9 | S(rot)=       0.00936879 Eh      5.88 kcal/mol|
|  sn=10 | S(rot)=       0.00926931 Eh      5.82 kcal/mol|
|  sn=11 | S(rot)=       0.00917932 Eh      5.76 kcal/mol|
|  sn=12 | S(rot)=       0.00909716 Eh      5.71 kcal/mol|
 --------------------------------------------------------


-------------------
GIBBS FREE ENERGY
-------------------

The Gibbs free energy is G = H - T*S

Total enthalpy                    ...   -252.77298645 Eh 
Total entropy correction          ...     -0.03268809 Eh    -20.51 kcal/mol
-----------------------------------------------------------------------
Final Gibbs free energy         ...   -252.80567454 Eh

For completeness - the Gibbs free energy minus the electronic energy
G-E(el)                           ...      0.02888156 Eh     18.12 kcal/mol



Timings for individual modules:

Sum of individual times         ...     2359.180 sec (=  39.320 min)
GTO integral calculation        ...       32.566 sec (=   0.543 min)   1.4 %
SCF iterations                  ...      472.609 sec (=   7.877 min)  20.0 %
MP2 module                      ...      994.915 sec (=  16.582 min)  42.2 %
Geometry relaxation             ...        5.635 sec (=   0.094 min)   0.2 %
Numerical frequency calculation ...      853.455 sec (=  14.224 min)  36.2 %
                             ****ORCA TERMINATED NORMALLY****
TOTAL RUN TIME: 0 days 0 hours 39 minutes 47 seconds 325 msec
