
                                 *****************
                                 * O   R   C   A *
                                 *****************

                                            #,                                       
                                            ###                                      
                                            ####                                     
                                            #####                                    
                                            ######                                   
                                           ########,                                 
                                     ,,################,,,,,                         
                               ,,#################################,,                 
                          ,,##########################################,,             
                       ,#########################################, ''#####,          
                    ,#############################################,,   '####,        
                  ,##################################################,,,,####,       
                ,###########''''           ''''###############################       
              ,#####''   ,,,,##########,,,,          '''####'''          '####       
            ,##' ,,,,###########################,,,                        '##       
           ' ,,###''''                  '''############,,,                           
         ,,##''                                '''############,,,,        ,,,,,,###''
      ,#''                                            '''#######################'''  
     '                                                          ''''####''''         
             ,#######,   #######,   ,#######,      ##                                
            ,#'     '#,  ##    ##  ,#'     '#,    #''#        ######   ,####,        
            ##       ##  ##   ,#'  ##            #'  '#       #        #'  '#        
            ##       ##  #######   ##           ,######,      #####,   #    #        
            '#,     ,#'  ##    ##  '#,     ,#' ,#      #,         ##   #,  ,#        
             '#######'   ##     ##  '#######'  #'      '#     #####' # '####'        



                  #######################################################
                  #                        -***-                        #
                  #          Department of theory and spectroscopy      #
                  #    Directorship and core code : Frank Neese         #
                  #        Max Planck Institute fuer Kohlenforschung    #
                  #                Kaiser Wilhelm Platz 1               #
                  #                 D-45470 Muelheim/Ruhr               #
                  #                      Germany                        #
                  #                                                     #
                  #                  All rights reserved                #
                  #                        -***-                        #
                  #######################################################


                         Program Version 5.0.1 -  RELEASE  -


 With contributions from (in alphabetic order):
   Daniel Aravena         : Magnetic Suceptibility
   Michael Atanasov       : Ab Initio Ligand Field Theory (pilot matlab implementation)
   Alexander A. Auer      : GIAO ZORA, VPT2 properties, NMR spectrum
   Ute Becker             : Parallelization
   Giovanni Bistoni       : ED, misc. LED, open-shell LED, HFLD
   Martin Brehm           : Molecular dynamics
   Dmytro Bykov           : SCF Hessian
   Vijay G. Chilkuri      : MRCI spin determinant printing, contributions to CSF-ICE
   Dipayan Datta          : RHF DLPNO-CCSD density
   Achintya Kumar Dutta   : EOM-CC, STEOM-CC
   Dmitry Ganyushin       : Spin-Orbit,Spin-Spin,Magnetic field MRCI
   Miquel Garcia          : C-PCM and meta-GGA Hessian, CC/C-PCM, Gaussian charge scheme
   Yang Guo               : DLPNO-NEVPT2, F12-NEVPT2, CIM, IAO-localization
   Andreas Hansen         : Spin unrestricted coupled pair/coupled cluster methods
   Benjamin Helmich-Paris : MC-RPA, TRAH-SCF, COSX integrals
   Lee Huntington         : MR-EOM, pCC
   Robert Izsak           : Overlap fitted RIJCOSX, COSX-SCS-MP3, EOM
   Marcus Kettner         : VPT2
   Christian Kollmar      : KDIIS, OOCD, Brueckner-CCSD(T), CCSD density, CASPT2, CASPT2-K
   Simone Kossmann        : Meta GGA functionals, TD-DFT gradient, OOMP2, MP2 Hessian
   Martin Krupicka        : Initial AUTO-CI
   Lucas Lang             : DCDCAS
   Marvin Lechner         : AUTO-CI (C++ implementation), FIC-MRCC
   Dagmar Lenk            : GEPOL surface, SMD
   Dimitrios Liakos       : Extrapolation schemes; Compound Job, initial MDCI parallelization
   Dimitrios Manganas     : Further ROCIS development; embedding schemes
   Dimitrios Pantazis     : SARC Basis sets
   Anastasios Papadopoulos: AUTO-CI, single reference methods and gradients
   Taras Petrenko         : DFT Hessian,TD-DFT gradient, ASA, ECA, R-Raman, ABS, FL, XAS/XES, NRVS
   Peter Pinski           : DLPNO-MP2, DLPNO-MP2 Gradient
   Christoph Reimann      : Effective Core Potentials
   Marius Retegan         : Local ZFS, SOC
   Christoph Riplinger    : Optimizer, TS searches, QM/MM, DLPNO-CCSD(T), (RO)-DLPNO pert. Triples
   Tobias Risthaus        : Range-separated hybrids, TD-DFT gradient, RPA, STAB
   Michael Roemelt        : Original ROCIS implementation
   Masaaki Saitow         : Open-shell DLPNO-CCSD energy and density
   Barbara Sandhoefer     : DKH picture change effects
   Avijit Sen             : IP-ROCIS
   Kantharuban Sivalingam : CASSCF convergence, NEVPT2, FIC-MRCI
   Bernardo de Souza      : ESD, SOC TD-DFT
   Georgi Stoychev        : AutoAux, RI-MP2 NMR, DLPNO-MP2 response
   Willem Van den Heuvel  : Paramagnetic NMR
   Boris Wezisla          : Elementary symmetry handling
   Frank Wennmohs         : Technical directorship


 We gratefully acknowledge several colleagues who have allowed us to
 interface, adapt or use parts of their codes:
   Stefan Grimme, W. Hujo, H. Kruse, P. Pracht,  : VdW corrections, initial TS optimization,
                  C. Bannwarth, S. Ehlert          DFT functionals, gCP, sTDA/sTD-DF
   Ed Valeev, F. Pavosevic, A. Kumar             : LibInt (2-el integral package), F12 methods
   Garnet Chan, S. Sharma, J. Yang, R. Olivares  : DMRG
   Ulf Ekstrom                                   : XCFun DFT Library
   Mihaly Kallay                                 : mrcc  (arbitrary order and MRCC methods)
   Jiri Pittner, Ondrej Demel                    : Mk-CCSD
   Frank Weinhold                                : gennbo (NPA and NBO analysis)
   Christopher J. Cramer and Donald G. Truhlar   : smd solvation model
   Lars Goerigk                                  : TD-DFT with DH, B97 family of functionals
   V. Asgeirsson, H. Jonsson                     : NEB implementation
   FAccTs GmbH                                   : IRC, NEB, NEB-TS, DLPNO-Multilevel, CI-OPT
                                                   MM, QMMM, 2- and 3-layer-ONIOM, Crystal-QMMM,
                                                   LR-CPCM, SF, NACMEs, symmetry and pop. for TD-DFT,
                                                   nearIR, NL-DFT gradient (VV10), updates on ESD,
                                                   ML-optimized integration grids
   S Lehtola, MJT Oliveira, MAL Marques          : LibXC Library
   Liviu Ungur et al                             : ANISO software


 Your calculation uses the libint2 library for the computation of 2-el integrals
 For citations please refer to: http://libint.valeyev.net

 Your ORCA version has been built with support for libXC version: 5.1.0
 For citations please refer to: https://tddft.org/programs/libxc/

 This ORCA versions uses:
   CBLAS   interface :  Fast vector & matrix operations
   LAPACKE interface :  Fast linear algebra routines
   SCALAPACK package :  Parallel linear algebra routines
   Shared memory     :  Shared parallel matrices
   BLAS/LAPACK       :  OpenBLAS 0.3.15  USE64BITINT DYNAMIC_ARCH NO_AFFINITY Zen SINGLE_THREADED
        Core in use  :  Zen
   Copyright (c) 2011-2014, The OpenBLAS Project




***************************************
The coordinates will be read from file: input.xyz
***************************************


================================================================================

----- Orbital basis set information -----
Your calculation utilizes the basis: 6-31G(d)
   H-He, Li-Ne : W. J. Hehre, R. Ditchfield and J.A. Pople, J. Chem. Phys. 56, 2257 (1972).
                 Note: He and Ne are unpublished basis sets taken from the Gaussian program.
                 Note: Li and B from J. D. Dill and J. A. Pople, J. Chem. Phys. 62, 2921 (1975).
   Na - Ar     : M. M. Francl, W. J. Pietro, W. J. Hehre, J. S. Binkley, M. S. Gordon, 
                 D. J. DeFrees and J. A. Pople, J. Chem. Phys. 77, 3654 (1982).
   K - Zn      : V. A. Rassolov, J. A. Pople, M. A. Ratner, and T. L. Windus, J. Chem. Phys. 109, 1223 (1998).

================================================================================
                                        WARNINGS
                       Please study these warnings very carefully!
================================================================================


WARNING: Geometry Optimization
  ===> : Switching off AutoStart
         For restart on a previous wavefunction, please use MOREAD

WARNING: Post HF methods need fully converged wavefunctions
  ===> : Setting SCFConvForced true
         You can overwrite this default with %scf ConvForced false 


INFO   : the flag for use of the SHARK integral package has been found!

================================================================================
                                       INPUT FILE
================================================================================
NAME = input.orc
|  1> ! MP2 UHF 6-31G(d) OPTTS NumFreq NoFrozenCore VERYTIGHTSCF VERYTIGHTOPT
|  2> %geom
|  3> MaxIter 200
|  4> end
|  5> 
|  6> * XYZfile 0 2 input.xyz
|  7> 
|  8>                          ****END OF INPUT****
================================================================================

                       *****************************
                       * Geometry Optimization Run *
                       *****************************

Geometry optimization settings:
Update method            Update   .... Bofill
Choice of coordinates    CoordSys .... Z-matrix Internals
Initial Hessian          InHess   .... Almoef's Model

Convergence Tolerances:
Energy Change            TolE     ....  2.0000e-07 Eh
Max. Gradient            TolMAXG  ....  3.0000e-05 Eh/bohr
RMS Gradient             TolRMSG  ....  8.0000e-06 Eh/bohr
Max. Displacement        TolMAXD  ....  2.0000e-04 bohr
RMS Displacement         TolRMSD  ....  1.0000e-04 bohr
Strict Convergence                ....  False
------------------------------------------------------------------------------
                        ORCA OPTIMIZATION COORDINATE SETUP
------------------------------------------------------------------------------

The optimization will be done in new redundant internal coordinates
Making redundant internal coordinates   ...  (new redundants) done
Following TS mode number                ...     0
Evaluating the initial hessian          ...  (Almloef) done
Evaluating the coordinates              ...  done
Calculating the B-matrix                .... done
Calculating the G-matrix                .... done
Diagonalizing the G-matrix              .... done
The first mode is                       ....    7
The number of degrees of freedom        ....   18

    -----------------------------------------------------------------
                    Redundant Internal Coordinates


    -----------------------------------------------------------------
         Definition                    Initial Value    Approx d2E/dq
    -----------------------------------------------------------------
      1. B(H   1,C   0)                  1.0917         0.357836   
      2. B(C   2,C   0)                  1.4550         0.492090   
      3. B(F   3,C   2)                  1.3554         0.590475   
      4. B(O   4,C   2)                  1.3520         0.643331   
      5. B(H   5,C   0)                  1.0919         0.357574   
      6. B(F   6,C   0)                  1.4173         0.470255   
      7. B(H   7,O   4)                  0.9754         0.491363   
      8. A(H   5,C   0,F   6)          106.8760         0.333100   
      9. A(C   2,C   0,F   6)          112.6693         0.392386   
     10. A(H   1,C   0,C   2)          109.8813         0.339105   
     11. A(H   1,C   0,H   5)          110.4135         0.290231   
     12. A(C   2,C   0,H   5)          109.8654         0.339063   
     13. A(H   1,C   0,F   6)          107.0650         0.333141   
     14. A(C   0,C   2,O   4)          123.2397         0.416516   
     15. A(C   0,C   2,F   3)          121.1458         0.408428   
     16. A(F   3,C   2,O   4)          115.5086         0.425611   
     17. A(C   2,O   4,H   7)          108.2349         0.368870   
     18. D(F   3,C   2,C   0,H   1)     27.8292         0.017866   
     19. D(O   4,C   2,C   0,H   1)   -148.2608         0.017866   
     20. D(F   3,C   2,C   0,H   5)    149.4993         0.017866   
     21. D(O   4,C   2,C   0,H   5)    -26.5908         0.017866   
     22. D(O   4,C   2,C   0,F   6)     92.4495         0.017866   
     23. D(F   3,C   2,C   0,F   6)    -91.4605         0.017866   
     24. D(H   7,O   4,C   2,C   0)   -158.3059         0.030536   
     25. D(H   7,O   4,C   2,F   3)     25.4016         0.030536   
    -----------------------------------------------------------------

Number of atoms                         .... 8
Number of degrees of freedom            .... 25

         *************************************************************
         *                GEOMETRY OPTIMIZATION CYCLE   1            *
         *************************************************************
---------------------------------
CARTESIAN COORDINATES (ANGSTROEM)
---------------------------------
  C      1.152634   -0.110306   -0.090558
  H      1.193269    0.129891    0.973632
  C      0.572650    1.002372   -0.827155
  F      0.679351    2.275076   -0.373399
  O     -0.164216    0.844284   -1.949676
  H      0.560573   -1.012929   -0.254926
  F      2.476580   -0.406237   -0.501006
  H     -0.149156    1.684145   -2.445465

----------------------------
CARTESIAN COORDINATES (A.U.)
----------------------------
  NO LB      ZA    FRAG     MASS         X           Y           Z
   0 C     6.0000    0    12.011    2.178163   -0.208447   -0.171130
   1 H     1.0000    0     1.008    2.254951    0.245458    1.839897
   2 C     6.0000    0    12.011    1.082152    1.894209   -1.563096
   3 F     9.0000    0    18.998    1.283787    4.299270   -0.705621
   4 O     8.0000    0    15.999   -0.310324    1.595466   -3.684354
   5 H     1.0000    0     1.008    1.059330   -1.914158   -0.481740
   6 F     9.0000    0    18.998    4.680059   -0.767677   -0.946764
   7 H     1.0000    0     1.008   -0.281864    3.182572   -4.621258

--------------------------------
INTERNAL COORDINATES (ANGSTROEM)
--------------------------------
 C      0   0   0     0.000000000000     0.00000000     0.00000000
 H      1   0   0     1.091716570932     0.00000000     0.00000000
 C      1   2   0     1.454994232344   109.88128389     0.00000000
 F      3   1   2     1.355379614552   121.14578976    27.82924105
 O      3   1   2     1.352042396982   123.23974798   211.73921144
 H      1   2   3     1.091916307804   110.41353328   238.65792619
 F      1   2   3     1.417348670327   107.06503183   122.66475291
 H      5   3   1     0.975396690903   108.23492211   201.69409425

---------------------------
INTERNAL COORDINATES (A.U.)
---------------------------
 C      0   0   0     0.000000000000     0.00000000     0.00000000
 H      1   0   0     2.063045334924     0.00000000     0.00000000
 C      1   2   0     2.749540625564   109.88128389     0.00000000
 F      3   1   2     2.561296279003   121.14578976    27.82924105
 O      3   1   2     2.554989851746   123.23974798   211.73921144
 H      1   2   3     2.063422782911   110.41353328   238.65792619
 F      1   2   3     2.678400823195   107.06503183   122.66475291
 H      5   3   1     1.843232617739   108.23492211   201.69409425

---------------------
BASIS SET INFORMATION
---------------------
There are 4 groups of distinct atoms

 Group   1 Type C   : 10s4p1d contracted to 3s2p1d pattern {631/31/1}
 Group   2 Type H   : 4s contracted to 2s pattern {31}
 Group   3 Type F   : 10s4p1d contracted to 3s2p1d pattern {631/31/1}
 Group   4 Type O   : 10s4p1d contracted to 3s2p1d pattern {631/31/1}

Atom   0C    basis set group =>   1
Atom   1H    basis set group =>   2
Atom   2C    basis set group =>   1
Atom   3F    basis set group =>   3
Atom   4O    basis set group =>   4
Atom   5H    basis set group =>   2
Atom   6F    basis set group =>   3
Atom   7H    basis set group =>   2
------------------------------------------------------------------------------
                           ORCA GTO INTEGRAL CALCULATION
------------------------------------------------------------------------------
------------------------------------------------------------------------------
                   ___                                                        
                  /   \      - P O W E R E D   B Y -                         
                 /     \                                                     
                 |  |  |   _    _      __       _____    __    __             
                 |  |  |  | |  | |    /  \     |  _  \  |  |  /  |          
                  \  \/   | |  | |   /    \    | | | |  |  | /  /          
                 / \  \   | |__| |  /  /\  \   | |_| |  |  |/  /          
                |  |  |   |  __  | /  /__\  \  |    /   |      \           
                |  |  |   | |  | | |   __   |  |    \   |  |\   \          
                \     /   | |  | | |  |  |  |  | |\  \  |  | \   \       
                 \___/    |_|  |_| |__|  |__|  |_| \__\ |__|  \__/        
                                                                              
                      - O R C A' S   B I G   F R I E N D -                    
                                      &                                       
                       - I N T E G R A L  F E E D E R -                       
                                                                              
 v1 FN, 2020, v2 2021                                                         
------------------------------------------------------------------------------


Reading SHARK input file input.SHARKINP.tmp ... ok
----------------------
SHARK INTEGRAL PACKAGE
----------------------

Number of atoms                             ...      8
Number of basis functions                   ...     76
Number of shells                            ...     36
Maximum angular momentum                    ...      2
Integral batch strategy                     ... SHARK/LIBINT Hybrid
RI-J (if used) integral strategy            ... SPLIT-RIJ (Revised 2003 algorithm where possible)
Printlevel                                  ...      1
Contraction scheme used                     ... SEGMENTED contraction
Coulomb Range Separation                    ... NOT USED
Exchange Range Separation                   ... NOT USED
Finite Nucleus Model                        ... NOT USED
Auxiliary Coulomb fitting basis             ... NOT available
Auxiliary J/K fitting basis                 ... NOT available
Auxiliary Correlation fitting basis         ... NOT available
Auxiliary 'external' fitting basis          ... NOT available
Integral threshold                          ...     1.000000e-12
Primitive cut-off                           ...     1.000000e-14
Primitive pair pre-selection threshold      ...     1.000000e-14

Calculating pre-screening integrals         ... done (  0.1 sec) Dimension = 36
Organizing shell pair data                  ... done (  0.0 sec)
Shell pair information
Total number of shell pairs                 ...       666
Shell pairs after pre-screening             ...       651
Total number of primitive shell pairs       ...      3942
Primitive shell pairs kept                  ...      2842
          la=0 lb=0:    220 shell pairs
          la=1 lb=0:    206 shell pairs
          la=1 lb=1:     55 shell pairs
          la=2 lb=0:    105 shell pairs
          la=2 lb=1:     50 shell pairs
          la=2 lb=2:     15 shell pairs

Calculating one electron integrals          ... done (  0.0 sec)
Calculating Nuclear repulsion               ... done (  0.0 sec) ENN=    179.222246314166 Eh

SHARK setup successfully completed in   0.2 seconds

Maximum memory used throughout the entire GTOINT-calculation: 7.5 MB
-------------------------------------------------------------------------------
                                 ORCA SCF
-------------------------------------------------------------------------------

------------
SCF SETTINGS
------------
Hamiltonian:
 Ab initio Hamiltonian  Method          .... Hartree-Fock(GTOs)


General Settings:
 Integral files         IntName         .... input
 Hartree-Fock type      HFTyp           .... UHF
 Total Charge           Charge          ....    0
 Multiplicity           Mult            ....    2
 Number of Electrons    NEL             ....   41
 Basis Dimension        Dim             ....   76
 Nuclear Repulsion      ENuc            ....    179.2222463142 Eh

Convergence Acceleration:
 DIIS                   CNVDIIS         .... on
   Start iteration      DIISMaxIt       ....    12
   Startup error        DIISStart       ....  0.200000
   # of expansion vecs  DIISMaxEq       ....     5
   Bias factor          DIISBfac        ....   1.050
   Max. coefficient     DIISMaxC        ....  10.000
 Trust-Rad. Augm. Hess. CNVTRAH         .... auto
   Auto Start mean grad. ratio tolernc. ....  1.125000
   Auto Start start iteration           ....    20
   Auto Start num. interpolation iter.  ....    10
   Max. Number of Micro iterations      ....    16
   Max. Number of Macro iterations      .... Maxiter - #DIIS iter
   Number of Davidson start vectors     ....     2
   Converg. threshold I  (grad. norm)   ....   2.000e-06
   Converg. threshold II (energy diff.) ....   1.000e-09
   Grad. Scal. Fac. for Micro threshold ....   0.100
   Minimum threshold for Micro iter.    ....   0.010
   NR start threshold (gradient norm)   ....   0.001
   Initial trust radius                 ....   0.400
   Minimum AH scaling param. (alpha)    ....   1.000
   Maximum AH scaling param. (alpha)    .... 1000.000
   Orbital update algorithm             .... Taylor
   White noise on init. David. guess    .... on
   Maximum white noise                  ....   0.010
   Quad. conv. algorithm                .... NR
 SOSCF                  CNVSOSCF        .... off
 Level Shifting         CNVShift        .... on
   Level shift para.    LevelShift      ....    0.2500
   Turn off err/grad.   ShiftErr        ....    0.0010
 Zerner damping         CNVZerner       .... off
 Static damping         CNVDamp         .... on
   Fraction old density DampFac         ....    0.7000
   Max. Damping (<1)    DampMax         ....    0.9800
   Min. Damping (>=0)   DampMin         ....    0.0000
   Turn off err/grad.   DampErr         ....    0.1000
 Fernandez-Rico         CNVRico         .... off

SCF Procedure:
 Maximum # iterations   MaxIter         ....   125
 SCF integral mode      SCFMode         .... Direct
   Integral package                     .... SHARK and LIBINT hybrid scheme
 Reset frequency        DirectResetFreq ....    20
 Integral Threshold     Thresh          ....  1.000e-12 Eh
 Primitive CutOff       TCut            ....  1.000e-14 Eh

Convergence Tolerance:
 Convergence Check Mode ConvCheckMode   .... Total+1el-Energy
 Convergence forced     ConvForced      .... 1
 Energy Change          TolE            ....  1.000e-09 Eh
 1-El. energy change                    ....  1.000e-06 Eh
 DIIS Error             TolErr          ....  1.000e-08


Diagonalization of the overlap matrix:
Smallest eigenvalue                        ... 5.132e-03
Time for diagonalization                   ...    0.036 sec
Threshold for overlap eigenvalues          ... 1.000e-08
Number of eigenvalues below threshold      ... 0
Time for construction of square roots      ...    0.043 sec
Total time needed                          ...    0.079 sec

Time for model grid setup =    0.147 sec

------------------------------
INITIAL GUESS: MODEL POTENTIAL
------------------------------
Loading Hartree-Fock densities                     ... done
Calculating cut-offs                               ... done
Initializing the effective Hamiltonian             ... done
Setting up the integral package (SHARK)            ... done
Starting the Coulomb interaction                   ... done (   0.1 sec)
Reading the grid                                   ... done
Mapping shells                                     ... done
Starting the XC term evaluation                    ... done (   0.1 sec)
Transforming the Hamiltonian                       ... done (   0.0 sec)
Diagonalizing the Hamiltonian                      ... done (   0.0 sec)
Back transforming the eigenvectors                 ... done (   0.0 sec)
Now organizing SCF variables                       ... done
                      ------------------
                      INITIAL GUESS DONE (   0.3 sec)
                      ------------------
--------------
SCF ITERATIONS
--------------
ITER       Energy         Delta-E        Max-DP      RMS-DP      [F,P]     Damp
               ***  Starting incremental Fock matrix formation  ***
  0   -351.0031283813   0.000000000000 0.02385896  0.00111915  0.2074515 0.7000
  1   -351.0458315410  -0.042703159762 0.01681714  0.00086931  0.1259138 0.7000
                               ***Turning on DIIS***
  2   -351.0729426232  -0.027111082207 0.03317388  0.00202785  0.0704648 0.0000
  3   -350.9789808980   0.093961725279 0.01269671  0.00061884  0.0368172 0.0000
  4   -351.1687188747  -0.189737976712 0.01177140  0.00036247  0.0091548 0.0000
  5   -351.1298155763   0.038903298362 0.00751964  0.00023618  0.0050072 0.0000
  6   -351.1337054942  -0.003889917918 0.00645826  0.00019066  0.0031143 0.0000
  7   -351.1387362759  -0.005030781663 0.00335250  0.00010347  0.0014732 0.0000
  8   -351.1381402140   0.000596061917 0.00168940  0.00006290  0.0006368 0.0000
  9   -351.1395646563  -0.001424442303 0.00026195  0.00001083  0.0001434 0.0000
 10   -351.1399291641  -0.000364507855 0.00013185  0.00000468  0.0000716 0.0000
 11   -351.1397510274   0.000178136688 0.00011400  0.00000409  0.0000321 0.0000
 12   -351.1398350245  -0.000083997094 0.00003922  0.00000178  0.0000105 0.0000
 13   -351.1398310814   0.000003943100 0.00001307  0.00000055  0.0000046 0.0000
 14   -351.1398227272   0.000008354222 0.00000868  0.00000033  0.0000025 0.0000
 15   -351.1398270156  -0.000004288430 0.00000570  0.00000020  0.0000015 0.0000
 16   -351.1398249857   0.000002029958 0.00000318  0.00000011  0.0000007 0.0000
 17   -351.1398252882  -0.000000302477 0.00000123  0.00000004  0.0000003 0.0000
 18   -351.1398257854  -0.000000497197 0.00000046  0.00000002  0.0000001 0.0000
 19   -351.1398258063  -0.000000020965 0.00000021  0.00000001  0.0000001 0.0000
               *** Restarting incremental Fock matrix formation ***
                                   *** Resetting DIIS ***
 20   -351.1398258952  -0.000000088846 0.00000004  0.00000000  0.0000000 0.0000
                            ***DIIS convergence achieved***

               *****************************************************
               *                     SUCCESS                       *
               *           SCF CONVERGED AFTER  21 CYCLES          *
               *****************************************************


----------------
TOTAL SCF ENERGY
----------------

Total Energy       :         -351.13982590 Eh           -9555.00043 eV

Components:
Nuclear Repulsion  :          179.22224631 Eh            4876.88526 eV
Electronic Energy  :         -530.36207222 Eh          -14431.88569 eV
One Electron Energy:         -842.54993421 Eh          -22926.94929 eV
Two Electron Energy:          312.18786199 Eh            8495.06361 eV

Virial components:
Potential Energy   :         -702.04490213 Eh          -19103.61300 eV
Kinetic Energy     :          350.90507623 Eh            9548.61257 eV
Virial Ratio       :            2.00066898


---------------
SCF CONVERGENCE
---------------

  Last Energy change         ...   -5.6782e-09  Tolerance :   1.0000e-09
  Last MAX-Density change    ...    2.3394e-08  Tolerance :   1.0000e-08
  Last RMS-Density change    ...    9.0960e-10  Tolerance :   1.0000e-09
  Last DIIS Error            ...    1.4775e-08  Tolerance :   1.0000e-08

             **** THE GBW FILE WAS UPDATED (input.gbw) ****
             **** DENSITY input.scfp WAS UPDATED ****
             **** ENERGY FILE WAS UPDATED (input.en.tmp) ****
----------------------
UHF SPIN CONTAMINATION
----------------------

Expectation value of <S**2>     :     0.764474
Ideal value S*(S+1) for S=0.5   :     0.750000
Deviation                       :     0.014474

             **** THE GBW FILE WAS UPDATED (input.gbw) ****
             **** DENSITY input.scfp WAS UPDATED ****
----------------
ORBITAL ENERGIES
----------------
                 SPIN UP ORBITALS
  NO   OCC          E(Eh)            E(eV) 
   0   1.0000     -26.323966      -716.3115 
   1   1.0000     -26.269171      -714.8205 
   2   1.0000     -20.619802      -561.0933 
   3   1.0000     -11.372032      -309.4487 
   4   1.0000     -11.329146      -308.2817 
   5   1.0000      -1.642124       -44.6845 
   6   1.0000      -1.575076       -42.8600 
   7   1.0000      -1.427073       -38.8326 
   8   1.0000      -1.053218       -28.6595 
   9   1.0000      -0.866802       -23.5869 
  10   1.0000      -0.783149       -21.3106 
  11   1.0000      -0.749381       -20.3917 
  12   1.0000      -0.738516       -20.0960 
  13   1.0000      -0.685321       -18.6485 
  14   1.0000      -0.681956       -18.5570 
  15   1.0000      -0.658245       -17.9118 
  16   1.0000      -0.620361       -16.8809 
  17   1.0000      -0.585104       -15.9215 
  18   1.0000      -0.554383       -15.0855 
  19   1.0000      -0.540035       -14.6951 
  20   1.0000      -0.340674        -9.2702 
  21   0.0000       0.209633         5.7044 
  22   0.0000       0.265837         7.2338 
  23   0.0000       0.281800         7.6682 
  24   0.0000       0.321376         8.7451 
  25   0.0000       0.348812         9.4917 
  26   0.0000       0.442584        12.0433 
  27   0.0000       0.501645        13.6504 
  28   0.0000       0.721014        19.6198 
  29   0.0000       0.760812        20.7027 
  30   0.0000       0.774490        21.0749 
  31   0.0000       0.790859        21.5204 
  32   0.0000       0.797707        21.7067 
  33   0.0000       0.924405        25.1543 
  34   0.0000       0.947925        25.7944 
  35   0.0000       1.051183        28.6041 
  36   0.0000       1.101381        29.9701 
  37   0.0000       1.131771        30.7971 
  38   0.0000       1.198322        32.6080 
  39   0.0000       1.240141        33.7459 
  40   0.0000       1.336457        36.3668 
  41   0.0000       1.407971        38.3128 
  42   0.0000       1.482344        40.3366 
  43   0.0000       1.515215        41.2311 
  44   0.0000       1.569439        42.7066 
  45   0.0000       1.579337        42.9759 
  46   0.0000       1.640159        44.6310 
  47   0.0000       1.680595        45.7313 
  48   0.0000       1.695472        46.1361 
  49   0.0000       1.700763        46.2801 
  50   0.0000       1.806622        49.1607 
  51   0.0000       1.905182        51.8426 
  52   0.0000       1.974062        53.7170 
  53   0.0000       2.018144        54.9165 
  54   0.0000       2.041467        55.5512 
  55   0.0000       2.064504        56.1780 
  56   0.0000       2.122094        57.7451 
  57   0.0000       2.147918        58.4478 
  58   0.0000       2.186279        59.4917 
  59   0.0000       2.223969        60.5173 
  60   0.0000       2.283255        62.1305 
  61   0.0000       2.309243        62.8377 
  62   0.0000       2.317375        63.0590 
  63   0.0000       2.460677        66.9584 
  64   0.0000       2.476146        67.3794 
  65   0.0000       2.487319        67.6834 
  66   0.0000       2.613700        71.1224 
  67   0.0000       2.669689        72.6459 
  68   0.0000       2.735453        74.4354 
  69   0.0000       2.868201        78.0477 
  70   0.0000       2.919304        79.4383 
  71   0.0000       2.993954        81.4696 
  72   0.0000       3.173253        86.3486 
  73   0.0000       3.298177        89.7480 
  74   0.0000       3.354429        91.2787 
  75   0.0000       3.410297        92.7989 

                 SPIN DOWN ORBITALS
  NO   OCC          E(Eh)            E(eV) 
   0   1.0000     -26.320659      -716.2215 
   1   1.0000     -26.264673      -714.6981 
   2   1.0000     -20.615197      -560.9680 
   3   1.0000     -11.344128      -308.6894 
   4   1.0000     -11.333077      -308.3887 
   5   1.0000      -1.630564       -44.3699 
   6   1.0000      -1.562091       -42.5067 
   7   1.0000      -1.411903       -38.4198 
   8   1.0000      -1.023042       -27.8384 
   9   1.0000      -0.842209       -22.9177 
  10   1.0000      -0.776800       -21.1378 
  11   1.0000      -0.732239       -19.9252 
  12   1.0000      -0.691226       -18.8092 
  13   1.0000      -0.681065       -18.5327 
  14   1.0000      -0.659810       -17.9543 
  15   1.0000      -0.646910       -17.6033 
  16   1.0000      -0.597032       -16.2461 
  17   1.0000      -0.555440       -15.1143 
  18   1.0000      -0.537656       -14.6304 
  19   1.0000      -0.532955       -14.5024 
  20   0.0000       0.152136         4.1398 
  21   0.0000       0.213809         5.8180 
  22   0.0000       0.271177         7.3791 
  23   0.0000       0.286406         7.7935 
  24   0.0000       0.375986        10.2311 
  25   0.0000       0.399794        10.8789 
  26   0.0000       0.459894        12.5144 
  27   0.0000       0.515792        14.0354 
  28   0.0000       0.757018        20.5995 
  29   0.0000       0.775418        21.1002 
  30   0.0000       0.787510        21.4292 
  31   0.0000       0.808990        22.0137 
  32   0.0000       0.862059        23.4578 
  33   0.0000       0.928262        25.2593 
  34   0.0000       0.969020        26.3684 
  35   0.0000       1.054916        28.7057 
  36   0.0000       1.101005        29.9599 
  37   0.0000       1.135906        30.9096 
  38   0.0000       1.222171        33.2570 
  39   0.0000       1.245746        33.8985 
  40   0.0000       1.348085        36.6832 
  41   0.0000       1.412388        38.4330 
  42   0.0000       1.494704        40.6730 
  43   0.0000       1.528796        41.6006 
  44   0.0000       1.586623        43.1742 
  45   0.0000       1.599496        43.5245 
  46   0.0000       1.650709        44.9181 
  47   0.0000       1.692809        46.0637 
  48   0.0000       1.705891        46.4197 
  49   0.0000       1.722572        46.8736 
  50   0.0000       1.807848        49.1940 
  51   0.0000       1.916660        52.1550 
  52   0.0000       1.980235        53.8849 
  53   0.0000       2.026808        55.1523 
  54   0.0000       2.051510        55.8244 
  55   0.0000       2.077154        56.5222 
  56   0.0000       2.131422        57.9989 
  57   0.0000       2.153693        58.6050 
  58   0.0000       2.191461        59.6327 
  59   0.0000       2.232291        60.7437 
  60   0.0000       2.307147        62.7807 
  61   0.0000       2.314354        62.9768 
  62   0.0000       2.325651        63.2842 
  63   0.0000       2.468201        67.1632 
  64   0.0000       2.482062        67.5403 
  65   0.0000       2.510478        68.3136 
  66   0.0000       2.629253        71.5456 
  67   0.0000       2.678757        72.8927 
  68   0.0000       2.757034        75.0227 
  69   0.0000       2.897609        78.8480 
  70   0.0000       2.929017        79.7026 
  71   0.0000       3.011995        81.9606 
  72   0.0000       3.182522        86.6008 
  73   0.0000       3.306831        89.9834 
  74   0.0000       3.358812        91.3979 
  75   0.0000       3.418311        93.0170 

                    ********************************
                    * MULLIKEN POPULATION ANALYSIS *
                    ********************************

--------------------------------------------
MULLIKEN ATOMIC CHARGES AND SPIN POPULATIONS
--------------------------------------------
   0 C :    0.088128   -0.117960
   1 H :    0.189525    0.010135
   2 C :    0.679097    1.019558
   3 F :   -0.426595    0.000510
   4 O :   -0.742805    0.018560
   5 H :    0.193802    0.012480
   6 F :   -0.461943    0.054793
   7 H :    0.480791    0.001923
Sum of atomic charges         :    0.0000000
Sum of atomic spin populations:    1.0000000

-----------------------------------------------------
MULLIKEN REDUCED ORBITAL CHARGES AND SPIN POPULATIONS
-----------------------------------------------------
CHARGE
  0 C s       :     3.191939  s :     3.191939
      pz      :     1.001634  p :     2.638054
      px      :     0.644340
      py      :     0.992079
      dz2     :     0.019889  d :     0.081878
      dxz     :     0.011227
      dyz     :     0.010075
      dx2y2   :     0.016486
      dxy     :     0.024202
  1 H s       :     0.810475  s :     0.810475
  2 C s       :     2.936195  s :     2.936195
      pz      :     0.745873  p :     2.282490
      px      :     0.946211
      py      :     0.590405
      dz2     :     0.022411  d :     0.102218
      dxz     :     0.016227
      dyz     :     0.026548
      dx2y2   :     0.021586
      dxy     :     0.015448
  3 F s       :     3.980260  s :     3.980260
      pz      :     1.897818  p :     5.427743
      px      :     1.940220
      py      :     1.589704
      dz2     :     0.002203  d :     0.018592
      dxz     :     0.000481
      dyz     :     0.005430
      dx2y2   :     0.006381
      dxy     :     0.004097
  4 O s       :     3.882892  s :     3.882892
      pz      :     1.447424  p :     4.826210
      px      :     1.760461
      py      :     1.618325
      dz2     :     0.005954  d :     0.033703
      dxz     :     0.006693
      dyz     :     0.008758
      dx2y2   :     0.009404
      dxy     :     0.002894
  5 H s       :     0.806198  s :     0.806198
  6 F s       :     3.982007  s :     3.982007
      pz      :     1.925990  p :     5.464447
      px      :     1.596301
      py      :     1.942157
      dz2     :     0.002150  d :     0.015489
      dxz     :     0.003810
      dyz     :     0.000416
      dx2y2   :     0.005806
      dxy     :     0.003307
  7 H s       :     0.519209  s :     0.519209

SPIN
  0 C s       :    -0.035609  s :    -0.035609
      pz      :    -0.032654  p :    -0.091358
      px      :    -0.008530
      py      :    -0.050174
      dz2     :     0.002163  d :     0.009007
      dxz     :    -0.000376
      dyz     :     0.001019
      dx2y2   :     0.002743
      dxy     :     0.003457
  1 H s       :     0.010135  s :     0.010135
  2 C s       :     0.140656  s :     0.140656
      pz      :     0.255456  p :     0.881370
      px      :     0.578955
      py      :     0.046959
      dz2     :     0.000039  d :    -0.002468
      dxz     :    -0.002414
      dyz     :     0.000467
      dx2y2   :    -0.000782
      dxy     :     0.000222
  3 F s       :    -0.000784  s :    -0.000784
      pz      :     0.007275  p :    -0.000214
      px      :     0.025586
      py      :    -0.033074
      dz2     :     0.000046  d :     0.001508
      dxz     :     0.000016
      dyz     :     0.000321
      dx2y2   :     0.000258
      dxy     :     0.000867
  4 O s       :     0.000024  s :     0.000024
      pz      :    -0.021764  p :     0.016108
      px      :     0.039873
      py      :    -0.002000
      dz2     :     0.001549  d :     0.002428
      dxz     :     0.000588
      dyz     :     0.000365
      dx2y2   :     0.000084
      dxy     :    -0.000157
  5 H s       :     0.012480  s :     0.012480
  6 F s       :    -0.000034  s :    -0.000034
      pz      :     0.001002  p :     0.055399
      px      :     0.047329
      py      :     0.007067
      dz2     :    -0.000119  d :    -0.000572
      dxz     :    -0.000062
      dyz     :     0.000021
      dx2y2   :    -0.000224
      dxy     :    -0.000189
  7 H s       :     0.001923  s :     0.001923


                     *******************************
                     * LOEWDIN POPULATION ANALYSIS *
                     *******************************

-------------------------------------------
LOEWDIN ATOMIC CHARGES AND SPIN POPULATIONS
-------------------------------------------
   0 C :   -0.011878   -0.028822
   1 H :    0.140327    0.008685
   2 C :    0.184389    0.833038
   3 F :   -0.177990    0.041448
   4 O :   -0.375247    0.075343
   5 H :    0.143077    0.010458
   6 F :   -0.261836    0.057587
   7 H :    0.359157    0.002263

----------------------------------------------------
LOEWDIN REDUCED ORBITAL CHARGES AND SPIN POPULATIONS
----------------------------------------------------
CHARGE
  0 C s       :     2.928913  s :     2.928913
      pz      :     1.066737  p :     2.912348
      px      :     0.774573
      py      :     1.071039
      dz2     :     0.037746  d :     0.170617
      dxz     :     0.025277
      dyz     :     0.018891
      dx2y2   :     0.038785
      dxy     :     0.049919
  1 H s       :     0.859673  s :     0.859673
  2 C s       :     2.854126  s :     2.854126
      pz      :     0.913651  p :     2.729893
      px      :     1.002671
      py      :     0.813570
      dz2     :     0.048859  d :     0.231592
      dxz     :     0.035141
      dyz     :     0.062532
      dx2y2   :     0.050515
      dxy     :     0.034544
  3 F s       :     3.742803  s :     3.742803
      pz      :     1.883209  p :     5.399512
      px      :     1.923683
      py      :     1.592620
      dz2     :     0.004365  d :     0.035675
      dxz     :     0.001191
      dyz     :     0.010187
      dx2y2   :     0.010275
      dxy     :     0.009658
  4 O s       :     3.525125  s :     3.525125
      pz      :     1.455689  p :     4.793198
      px      :     1.750490
      py      :     1.587019
      dz2     :     0.013814  d :     0.056924
      dxz     :     0.012898
      dyz     :     0.013671
      dx2y2   :     0.012866
      dxy     :     0.003675
  5 H s       :     0.856923  s :     0.856923
  6 F s       :     3.780340  s :     3.780340
      pz      :     1.921387  p :     5.453610
      px      :     1.599326
      py      :     1.932898
      dz2     :     0.003849  d :     0.027886
      dxz     :     0.007294
      dyz     :     0.000904
      dx2y2   :     0.009109
      dxy     :     0.006730
  7 H s       :     0.640843  s :     0.640843

SPIN
  0 C s       :    -0.011756  s :    -0.011756
      pz      :    -0.016960  p :    -0.041988
      px      :     0.000942
      py      :    -0.025970
      dz2     :     0.004976  d :     0.024922
      dxz     :     0.000268
      dyz     :     0.003188
      dx2y2   :     0.008188
      dxy     :     0.008303
  1 H s       :     0.008685  s :     0.008685
  2 C s       :     0.059792  s :     0.059792
      pz      :     0.223756  p :     0.776966
      px      :     0.523620
      py      :     0.029591
      dz2     :    -0.000118  d :    -0.003721
      dxz     :    -0.002743
      dyz     :    -0.000436
      dx2y2   :    -0.000582
      dxy     :     0.000158
  3 F s       :     0.002561  s :     0.002561
      pz      :     0.013130  p :     0.027340
      px      :     0.035806
      py      :    -0.021596
      dz2     :     0.000980  d :     0.011548
      dxz     :     0.000433
      dyz     :     0.002846
      dx2y2   :     0.001070
      dxy     :     0.006219
  4 O s       :     0.005324  s :     0.005324
      pz      :    -0.002069  p :     0.056159
      px      :     0.059295
      py      :    -0.001066
      dz2     :     0.007922  d :     0.013860
      dxz     :     0.002745
      dyz     :     0.000691
      dx2y2   :     0.002370
      dxy     :     0.000132
  5 H s       :     0.010458  s :     0.010458
  6 F s       :     0.005596  s :     0.005596
      pz      :     0.000587  p :     0.052853
      px      :     0.044649
      py      :     0.007616
      dz2     :    -0.000120  d :    -0.000862
      dxz     :    -0.000228
      dyz     :     0.000018
      dx2y2   :    -0.000365
      dxy     :    -0.000166
  7 H s       :     0.002263  s :     0.002263


                      *****************************
                      * MAYER POPULATION ANALYSIS *
                      *****************************

  NA   - Mulliken gross atomic population
  ZA   - Total nuclear charge
  QA   - Mulliken gross atomic charge
  VA   - Mayer's total valence
  BVA  - Mayer's bonded valence
  FA   - Mayer's free valence

  ATOM       NA         ZA         QA         VA         BVA        FA
  0 C      5.9119     6.0000     0.0881     3.6630     3.6496     0.0134
  1 H      0.8105     1.0000     0.1895     0.9206     0.9205     0.0001
  2 C      5.3209     6.0000     0.6791     3.5436     2.8358     0.7078
  3 F      9.4266     9.0000    -0.4266     0.8587     0.8525     0.0061
  4 O      8.7428     8.0000    -0.7428     1.7240     1.7098     0.0142
  5 H      0.8062     1.0000     0.1938     0.9184     0.9182     0.0002
  6 F      9.4619     9.0000    -0.4619     0.7734     0.7693     0.0041
  7 H      0.5192     1.0000     0.4808     0.7469     0.7469     0.0000

  Mayer bond orders larger than 0.100000
B(  0-C ,  1-H ) :   0.9364 B(  0-C ,  2-C ) :   1.0339 B(  0-C ,  5-H ) :   0.9316 
B(  0-C ,  6-F ) :   0.7469 B(  2-C ,  3-F ) :   0.8277 B(  2-C ,  4-O ) :   0.9759 
B(  4-O ,  7-H ) :   0.7286 

-------
TIMINGS
-------

Total SCF time: 0 days 0 hours 0 min 9 sec 

Total time                  ....       9.877 sec
Sum of individual times     ....       9.353 sec  ( 94.7%)

Fock matrix formation       ....       8.773 sec  ( 88.8%)
Diagonalization             ....       0.078 sec  (  0.8%)
Density matrix formation    ....       0.002 sec  (  0.0%)
Population analysis         ....       0.088 sec  (  0.9%)
Initial guess               ....       0.202 sec  (  2.0%)
Orbital Transformation      ....       0.000 sec  (  0.0%)
Orbital Orthonormalization  ....       0.000 sec  (  0.0%)
DIIS solution               ....       0.065 sec  (  0.7%)

Maximum memory used throughout the entire SCF-calculation: 230.4 MB

------------------------------------------------------------------------------
                                ORCA  MP2 
------------------------------------------------------------------------------

MP2 will be done in the AO integral direct mode
The Q1-step will be done using symmetric double matrices
Dimension of the basis                    ...   76
Memory devoted for MP2                    ...  256 MB   
Memory needed for all in one shot         ...   37 MB
Number of MOs that can be treated together...  149      
MP2 density construction                  ... relaxed
The MP2 gradient is requested => amplitudes will be stored on disk
Total number of MOs              ...   21
Number of MOs treated per batch  ...   21 
Number of batches necessary      ...    1 
OPERATORS   0/  0 PASS   0
OPERATORS   0/  1 PASS   0
Total number of MOs              ...   21
Number of MOs treated per batch  ...   20 
Number of batches necessary      ...    1 
OPERATORS   1/  0 PASS   0
OPERATORS   1/  1 PASS   0

Correlation energy components
 E2 and T2 for alpha/alpha pairs :     -0.106364868 Eh
 E2 and T2 for beta/beta   pairs :     -0.100571305 Eh
 E2 and T2 for alpha/beta  pairs :     -0.550750547 Eh

-----------------------------------------------
 MP2 CORRELATION ENERGY   :     -0.757686719 Eh
-----------------------------------------------


---------------------
MP2 DENSITY FORMATION
---------------------

Completing the external part of the density      ... done
Storing the unrelaxed density                    ... done

Calculating G(D)                                 ... done
Completing the Lagrangian                        ... done
Solving the Z-vector equations                   ... 

------------------------------------------------------------------------------
                           ORCA CP-SCF CALCULATION
------------------------------------------------------------------------------

Input orbitals are from        ... input.gbw
Input Perturbation             ... input.pin.tmp
Wavefunction output            ... input.pout.tmp
Perturbation mode              ... Real perturbation (singlet)
Solver                         ... POPLE
Max. number of iterations      ... 128
Convergence tolerance          ... 3.000e-05
Integral handling              ... Direct
Number of perturbations        ... 1
Number of operators            ... 2
Orbital ranges used for CP-SCF:
 Operator 0:  Orbitals   0... 20  to  21... 75
 Operator 1:  Orbitals   0... 19  to  20... 75
Variables per perturbation     ... 2275
Memory available               ... 1015.6 MB
Memory needed per perturbation ...   4.7 MB
Perturbations treated per batch... 1
Number of batches              ... 1
     CP-SCF ITERATION   0:   6.5665e-02 (   0.5 sec)
     CP-SCF ITERATION   1:   2.1026e-02 (   0.5 sec)
     CP-SCF ITERATION   2:   7.6147e-03 (   0.4 sec)
     CP-SCF ITERATION   3:   3.3046e-03 (   0.3 sec)
     CP-SCF ITERATION   4:   1.2815e-03 (   0.3 sec)
     CP-SCF ITERATION   5:   6.4390e-04 (   0.3 sec)
     CP-SCF ITERATION   6:   2.2120e-04 (   0.3 sec)
     CP-SCF ITERATION   7:   9.2454e-05 (   0.3 sec)
     CP-SCF ITERATION   8:   4.0701e-05 (   0.3 sec)
     CP-SCF ITERATION   9:   1.7004e-05 (   0.3 sec)
                    *** THE CP-SCF HAS CONVERGED ***
                                                 ... done
Finalizing the relaxed density                   ... done
Transforming P to the AO basis                   ... done
Storing the relaxed density                      ... done

------------------------------------
ENERGY WEIGHTED DENSITY FINALIZATION
------------------------------------

Gathering the parts of the W-matrix              ...                                                                                                           done
Forming the Z-density                            ... done
Transforming Z to the AO basis                   ... done
Calculating G(Z)                                 ... done
Finalizing the W-matrix                          ...                                                                                                           done
Transforming W to the AO basis and storing       ... done

                *********************************************
                * UNRELAXED MP2 DENSITY POPULATION ANALYSIS *
                *********************************************

------------------------------------------------------------------------------
                           ORCA POPULATION ANALYSIS
------------------------------------------------------------------------------
Input electron density              ... input.pmp2ur
Input spin density                  ... input.rmp2ur
BaseName (.gbw .S,...)              ... input

                    ********************************
                    * MULLIKEN POPULATION ANALYSIS *
                    ********************************

------------------------------------------
MULLIKEN ATOMIC CHARGES AND SPIN DENSITIES
------------------------------------------
   0 C :    0.072376   -0.113546
   1 H :    0.191357    0.009980
   2 C :    0.659091    1.009064
   3 F :   -0.414853    0.003187
   4 O :   -0.731245    0.022376
   5 H :    0.195577    0.012345
   6 F :   -0.450800    0.054613
   7 H :    0.478497    0.001981
Sum of atomic charges       :    0.0000000
Sum of atomic spin densities:    1.0000000

---------------------------------------------------
MULLIKEN REDUCED ORBITAL CHARGES AND SPIN DENSITIES
---------------------------------------------------
CHARGE
  0 C s       :     3.190645  s :     3.190645
      pz      :     1.000597  p :     2.642225
      px      :     0.650911
      py      :     0.990717
      dz2     :     0.022549  d :     0.094753
      dxz     :     0.013813
      dyz     :     0.012902
      dx2y2   :     0.018938
      dxy     :     0.026550
  1 H s       :     0.808643  s :     0.808643
  2 C s       :     2.938907  s :     2.938907
      pz      :     0.747896  p :     2.288522
      px      :     0.946564
      py      :     0.594062
      dz2     :     0.024766  d :     0.113480
      dxz     :     0.018412
      dyz     :     0.028652
      dx2y2   :     0.023783
      dxy     :     0.017866
  3 F s       :     3.978321  s :     3.978321
      pz      :     1.888642  p :     5.398726
      px      :     1.931189
      py      :     1.578895
      dz2     :     0.005998  d :     0.037806
      dxz     :     0.004190
      dyz     :     0.009358
      dx2y2   :     0.010156
      dxy     :     0.008103
  4 O s       :     3.878934  s :     3.878934
      pz      :     1.438687  p :     4.796353
      px      :     1.748870
      py      :     1.608797
      dz2     :     0.010528  d :     0.055958
      dxz     :     0.011086
      dyz     :     0.013208
      dx2y2   :     0.013743
      dxy     :     0.007394
  5 H s       :     0.804423  s :     0.804423
  6 F s       :     3.980171  s :     3.980171
      pz      :     1.917485  p :     5.435903
      px      :     1.584673
      py      :     1.933745
      dz2     :     0.005919  d :     0.034726
      dxz     :     0.007754
      dyz     :     0.004128
      dx2y2   :     0.009652
      dxy     :     0.007273
  7 H s       :     0.521503  s :     0.521503

SPIN
  0 C s       :    -0.035050  s :    -0.035050
      pz      :    -0.031628  p :    -0.087221
      px      :    -0.006883
      py      :    -0.048710
      dz2     :     0.002099  d :     0.008725
      dxz     :    -0.000419
      dyz     :     0.000974
      dx2y2   :     0.002699
      dxy     :     0.003374
  1 H s       :     0.009980  s :     0.009980
  2 C s       :     0.141404  s :     0.141404
      pz      :     0.250971  p :     0.866748
      px      :     0.569459
      py      :     0.046318
      dz2     :     0.000629  d :     0.000913
      dxz     :    -0.001332
      dyz     :     0.000752
      dx2y2   :    -0.000044
      dxy     :     0.000908
  3 F s       :    -0.000723  s :    -0.000723
      pz      :     0.007896  p :     0.002460
      px      :     0.026930
      py      :    -0.032366
      dz2     :     0.000041  d :     0.001450
      dxz     :     0.000032
      dyz     :     0.000291
      dx2y2   :     0.000227
      dxy     :     0.000859
  4 O s       :     0.000200  s :     0.000200
      pz      :    -0.020288  p :     0.019640
      px      :     0.041891
      py      :    -0.001962
      dz2     :     0.001544  d :     0.002536
      dxz     :     0.000604
      dyz     :     0.000329
      dx2y2   :     0.000161
      dxy     :    -0.000101
  5 H s       :     0.012345  s :     0.012345
  6 F s       :    -0.000018  s :    -0.000018
      pz      :     0.000937  p :     0.055019
      px      :     0.046920
      py      :     0.007162
      dz2     :    -0.000097  d :    -0.000388
      dxz     :    -0.000019
      dyz     :     0.000023
      dx2y2   :    -0.000154
      dxy     :    -0.000141
  7 H s       :     0.001981  s :     0.001981


                     *******************************
                     * LOEWDIN POPULATION ANALYSIS *
                     *******************************

-----------------------------------------
LOEWDIN ATOMIC CHARGES AND SPIN DENSITIES
-----------------------------------------
   0 C :   -0.027099   -0.025416
   1 H :    0.142777    0.008570
   2 C :    0.168198    0.824191
   3 F :   -0.167749    0.043831
   4 O :   -0.367891    0.078575
   5 H :    0.145504    0.010366
   6 F :   -0.252078    0.057560
   7 H :    0.358337    0.002322

--------------------------------------------------
LOEWDIN REDUCED ORBITAL CHARGES AND SPIN DENSITIES
--------------------------------------------------
CHARGE
  0 C s       :     2.929855  s :     2.929855
      pz      :     1.064560  p :     2.912132
      px      :     0.779418
      py      :     1.068154
      dz2     :     0.040738  d :     0.185113
      dxz     :     0.028127
      dyz     :     0.022208
      dx2y2   :     0.041481
      dxy     :     0.052558
  1 H s       :     0.857223  s :     0.857223
  2 C s       :     2.855991  s :     2.855991
      pz      :     0.913615  p :     2.731460
      px      :     1.002711
      py      :     0.815135
      dz2     :     0.051257  d :     0.244351
      dxz     :     0.038167
      dyz     :     0.064736
      dx2y2   :     0.053041
      dxy     :     0.037149
  3 F s       :     3.741359  s :     3.741359
      pz      :     1.873950  p :     5.370838
      px      :     1.914401
      py      :     1.582487
      dz2     :     0.008233  d :     0.055551
      dxz     :     0.004905
      dyz     :     0.014325
      dx2y2   :     0.014499
      dxy     :     0.013589
  4 O s       :     3.522941  s :     3.522941
      pz      :     1.447278  p :     4.764438
      px      :     1.738973
      py      :     1.578187
      dz2     :     0.018624  d :     0.080513
      dxz     :     0.017901
      dyz     :     0.018364
      dx2y2   :     0.017419
      dxy     :     0.008204
  5 H s       :     0.854496  s :     0.854496
  6 F s       :     3.778878  s :     3.778878
      pz      :     1.912747  p :     5.425460
      px      :     1.588405
      py      :     1.924308
      dz2     :     0.007710  d :     0.047740
      dxz     :     0.011352
      dyz     :     0.004639
      dx2y2   :     0.013292
      dxy     :     0.010747
  7 H s       :     0.641663  s :     0.641663

SPIN
  0 C s       :    -0.011303  s :    -0.011303
      pz      :    -0.016155  p :    -0.038491
      px      :     0.002447
      py      :    -0.024784
      dz2     :     0.004854  d :     0.024378
      dxz     :     0.000231
      dyz     :     0.003107
      dx2y2   :     0.008070
      dxy     :     0.008116
  1 H s       :     0.008570  s :     0.008570
  2 C s       :     0.060496  s :     0.060496
      pz      :     0.219676  p :     0.763584
      px      :     0.514715
      py      :     0.029192
      dz2     :     0.000506  d :     0.000111
      dxz     :    -0.001431
      dyz     :    -0.000123
      dx2y2   :     0.000279
      dxy     :     0.000881
  3 F s       :     0.002674  s :     0.002674
      pz      :     0.013696  p :     0.029774
      px      :     0.037029
      py      :    -0.020952
      dz2     :     0.000967  d :     0.011383
      dxz     :     0.000441
      dyz     :     0.002795
      dx2y2   :     0.001046
      dxy     :     0.006134
  4 O s       :     0.005529  s :     0.005529
      pz      :    -0.000822  p :     0.059227
      px      :     0.061076
      py      :    -0.001027
      dz2     :     0.007827  d :     0.013819
      dxz     :     0.002737
      dyz     :     0.000654
      dx2y2   :     0.002413
      dxy     :     0.000187
  5 H s       :     0.010366  s :     0.010366
  6 F s       :     0.005662  s :     0.005662
      pz      :     0.000546  p :     0.052593
      px      :     0.044324
      py      :     0.007723
      dz2     :    -0.000101  d :    -0.000694
      dxz     :    -0.000189
      dyz     :     0.000020
      dx2y2   :    -0.000308
      dxy     :    -0.000116
  7 H s       :     0.002322  s :     0.002322


                      *****************************
                      * MAYER POPULATION ANALYSIS *
                      *****************************

  NA   - Mulliken gross atomic population
  ZA   - Total nuclear charge
  QA   - Mulliken gross atomic charge
  VA   - Mayer's total valence
  BVA  - Mayer's bonded valence
  FA   - Mayer's free valence

  ATOM       NA         ZA         QA         VA         BVA        FA
  0 C      5.9276     6.0000     0.0724     3.7419     3.4955     0.2464
  1 H      0.8086     1.0000     0.1914     0.9229     0.8870     0.0359
  2 C      5.3409     6.0000     0.6591     3.6025     2.6923     0.9102
  3 F      9.4149     9.0000    -0.4149     1.1303     0.8058     0.3245
  4 O      8.7312     8.0000    -0.7312     1.9839     1.6230     0.3608
  5 H      0.8044     1.0000     0.1956     0.9207     0.8847     0.0359
  6 F      9.4508     9.0000    -0.4508     1.0482     0.7236     0.3245
  7 H      0.5215     1.0000     0.4785     0.7502     0.7147     0.0356

  Mayer bond orders larger than 0.100000
B(  0-C ,  1-H ) :   0.9044 B(  0-C ,  2-C ) :   0.9884 B(  0-C ,  5-H ) :   0.8996 
B(  0-C ,  6-F ) :   0.7050 B(  2-C ,  3-F ) :   0.7858 B(  2-C ,  4-O ) :   0.9239 
B(  4-O ,  7-H ) :   0.6978 


                *******************************************
                * RELAXED MP2 DENSITY POPULATION ANALYSIS *
                *******************************************

------------------------------------------------------------------------------
                           ORCA POPULATION ANALYSIS
------------------------------------------------------------------------------
Input electron density              ... input.pmp2re
Input spin density                  ... input.rmp2re
BaseName (.gbw .S,...)              ... input

                    ********************************
                    * MULLIKEN POPULATION ANALYSIS *
                    ********************************

------------------------------------------
MULLIKEN ATOMIC CHARGES AND SPIN DENSITIES
------------------------------------------
   0 C :    0.013469   -0.024066
   1 H :    0.177455    0.003290
   2 C :    0.524083    0.847331
   3 F :   -0.334329    0.039379
   4 O :   -0.638344    0.081565
   5 H :    0.180768    0.006964
   6 F :   -0.383190    0.045090
   7 H :    0.460088    0.000447
Sum of atomic charges       :    0.0000000
Sum of atomic spin densities:    1.0000000

---------------------------------------------------
MULLIKEN REDUCED ORBITAL CHARGES AND SPIN DENSITIES
---------------------------------------------------
CHARGE
  0 C s       :     3.181490  s :     3.181490
      pz      :     1.013341  p :     2.715809
      px      :     0.696124
      py      :     1.006345
      dz2     :     0.020613  d :     0.089232
      dxz     :     0.013636
      dyz     :     0.011568
      dx2y2   :     0.018076
      dxy     :     0.025338
  1 H s       :     0.822545  s :     0.822545
  2 C s       :     2.964044  s :     2.964044
      pz      :     0.785854  p :     2.401090
      px      :     0.983613
      py      :     0.631623
      dz2     :     0.024432  d :     0.110783
      dxz     :     0.017535
      dyz     :     0.027795
      dx2y2   :     0.023038
      dxy     :     0.017984
  3 F s       :     3.966435  s :     3.966435
      pz      :     1.866190  p :     5.330682
      px      :     1.909144
      py      :     1.555348
      dz2     :     0.005984  d :     0.037213
      dxz     :     0.004273
      dyz     :     0.009119
      dx2y2   :     0.009321
      dxy     :     0.008515
  4 O s       :     3.861994  s :     3.861994
      pz      :     1.422010  p :     4.722562
      px      :     1.716397
      py      :     1.584155
      dz2     :     0.010363  d :     0.053788
      dxz     :     0.010038
      dyz     :     0.012770
      dx2y2   :     0.013124
      dxy     :     0.007492
  5 H s       :     0.819232  s :     0.819232
  6 F s       :     3.972219  s :     3.972219
      pz      :     1.903438  p :     5.377137
      px      :     1.553230
      py      :     1.920469
      dz2     :     0.005769  d :     0.033834
      dxz     :     0.007652
      dyz     :     0.004151
      dx2y2   :     0.008965
      dxy     :     0.007297
  7 H s       :     0.539912  s :     0.539912

SPIN
  0 C s       :    -0.017159  s :    -0.017159
      pz      :    -0.012580  p :    -0.015640
      px      :     0.022222
      py      :    -0.025283
      dz2     :     0.001763  d :     0.008733
      dxz     :    -0.000278
      dyz     :     0.000974
      dx2y2   :     0.003060
      dxy     :     0.003215
  1 H s       :     0.003290  s :     0.003290
  2 C s       :     0.090028  s :     0.090028
      pz      :     0.210800  p :     0.754305
      px      :     0.513678
      py      :     0.029827
      dz2     :     0.000871  d :     0.002997
      dxz     :    -0.000427
      dyz     :     0.000865
      dx2y2   :     0.000395
      dxy     :     0.001293
  3 F s       :     0.000119  s :     0.000119
      pz      :     0.015205  p :     0.037943
      px      :     0.039689
      py      :    -0.016952
      dz2     :     0.000021  d :     0.001317
      dxz     :     0.000033
      dyz     :     0.000229
      dx2y2   :     0.000036
      dxy     :     0.000998
  4 O s       :     0.002367  s :     0.002367
      pz      :     0.002702  p :     0.076791
      px      :     0.073617
      py      :     0.000472
      dz2     :     0.001685  d :     0.002406
      dxz     :     0.000444
      dyz     :     0.000258
      dx2y2   :     0.000137
      dxy     :    -0.000118
  5 H s       :     0.006964  s :     0.006964
  6 F s       :    -0.001506  s :    -0.001506
      pz      :    -0.000765  p :     0.046637
      px      :     0.039109
      py      :     0.008293
      dz2     :    -0.000043  d :    -0.000040
      dxz     :     0.000045
      dyz     :     0.000028
      dx2y2   :     0.000012
      dxy     :    -0.000083
  7 H s       :     0.000447  s :     0.000447


                     *******************************
                     * LOEWDIN POPULATION ANALYSIS *
                     *******************************

-----------------------------------------
LOEWDIN ATOMIC CHARGES AND SPIN DENSITIES
-----------------------------------------
   0 C :   -0.073499    0.026958
   1 H :    0.142597    0.004478
   2 C :    0.108802    0.712626
   3 F :   -0.127148    0.070710
   4 O :   -0.328312    0.121985
   5 H :    0.144835    0.007323
   6 F :   -0.221150    0.054409
   7 H :    0.353875    0.001511

--------------------------------------------------
LOEWDIN REDUCED ORBITAL CHARGES AND SPIN DENSITIES
--------------------------------------------------
CHARGE
  0 C s       :     2.933808  s :     2.933808
      pz      :     1.073776  p :     2.959692
      px      :     0.809002
      py      :     1.076915
      dz2     :     0.039045  d :     0.180000
      dxz     :     0.027775
      dyz     :     0.020880
      dx2y2   :     0.040432
      dxy     :     0.051868
  1 H s       :     0.857403  s :     0.857403
  2 C s       :     2.867914  s :     2.867914
      pz      :     0.927037  p :     2.781434
      px      :     1.025959
      py      :     0.828437
      dz2     :     0.050979  d :     0.241850
      dxz     :     0.037324
      dyz     :     0.064143
      dx2y2   :     0.051963
      dxy     :     0.037441
  3 F s       :     3.742880  s :     3.742880
      pz      :     1.859003  p :     5.327628
      px      :     1.897199
      py      :     1.571427
      dz2     :     0.008370  d :     0.056640
      dxz     :     0.004990
      dyz     :     0.014688
      dx2y2   :     0.014496
      dxy     :     0.014097
  4 O s       :     3.525703  s :     3.525703
      pz      :     1.442264  p :     4.722725
      px      :     1.712597
      py      :     1.567863
      dz2     :     0.018691  d :     0.079884
      dxz     :     0.017362
      dyz     :     0.018258
      dx2y2   :     0.017180
      dxy     :     0.008394
  5 H s       :     0.855165  s :     0.855165
  6 F s       :     3.781633  s :     3.781633
      pz      :     1.904146  p :     5.391026
      px      :     1.570925
      py      :     1.915956
      dz2     :     0.007808  d :     0.048491
      dxz     :     0.011579
      dyz     :     0.004674
      dx2y2   :     0.013390
      dxy     :     0.011039
  7 H s       :     0.646125  s :     0.646125

SPIN
  0 C s       :    -0.003040  s :    -0.003040
      pz      :    -0.004665  p :     0.006405
      px      :     0.022280
      py      :    -0.011210
      dz2     :     0.004369  d :     0.023592
      dxz     :     0.000248
      dyz     :     0.002548
      dx2y2   :     0.008851
      dxy     :     0.007577
  1 H s       :     0.004478  s :     0.004478
  2 C s       :     0.036845  s :     0.036845
      pz      :     0.187012  p :     0.670632
      px      :     0.465515
      py      :     0.018104
      dz2     :     0.001325  d :     0.005149
      dxz     :    -0.000073
      dyz     :     0.000554
      dx2y2   :     0.001443
      dxy     :     0.001899
  3 F s       :     0.002337  s :     0.002337
      pz      :     0.019827  p :     0.058342
      px      :     0.048432
      py      :    -0.009917
      dz2     :     0.000736  d :     0.010031
      dxz     :     0.000395
      dyz     :     0.002456
      dx2y2   :     0.000525
      dxy     :     0.005918
  4 O s       :     0.005755  s :     0.005755
      pz      :     0.015182  p :     0.103935
      px      :     0.087970
      py      :     0.000783
      dz2     :     0.007404  d :     0.012295
      dxz     :     0.002081
      dyz     :     0.000431
      dx2y2   :     0.002268
      dxy     :     0.000110
  5 H s       :     0.007323  s :     0.007323
  6 F s       :     0.006536  s :     0.006536
      pz      :    -0.000762  p :     0.047589
      px      :     0.039249
      py      :     0.009102
      dz2     :     0.000062  d :     0.000285
      dxz     :    -0.000001
      dyz     :     0.000028
      dx2y2   :     0.000082
      dxy     :     0.000114
  7 H s       :     0.001511  s :     0.001511


                      *****************************
                      * MAYER POPULATION ANALYSIS *
                      *****************************

  NA   - Mulliken gross atomic population
  ZA   - Total nuclear charge
  QA   - Mulliken gross atomic charge
  VA   - Mayer's total valence
  BVA  - Mayer's bonded valence
  FA   - Mayer's free valence

  ATOM       NA         ZA         QA         VA         BVA        FA
  0 C      5.9865     6.0000     0.0135     3.8556     3.6233     0.2323
  1 H      0.8225     1.0000     0.1775     0.9259     0.8904     0.0354
  2 C      5.4759     6.0000     0.5241     3.7407     2.9890     0.7517
  3 F      9.3343     9.0000    -0.3343     1.2544     0.9387     0.3157
  4 O      8.6383     8.0000    -0.6383     2.1050     1.7547     0.3502
  5 H      0.8192     1.0000     0.1808     0.9235     0.8881     0.0354
  6 F      9.3832     9.0000    -0.3832     1.1428     0.8254     0.3174
  7 H      0.5399     1.0000     0.4601     0.7663     0.7308     0.0355

  Mayer bond orders larger than 0.100000
B(  0-C ,  1-H ) :   0.8956 B(  0-C ,  2-C ) :   1.0420 B(  0-C ,  5-H ) :   0.8902 
B(  0-C ,  6-F ) :   0.7877 B(  2-C ,  3-F ) :   0.9010 B(  2-C ,  4-O ) :   1.0291 
B(  4-O ,  7-H ) :   0.7068 


----------------------------------
MP2 DERIVATIVE INTEGRAL GENERATION
----------------------------------


Input Wavefunction Amplitudes       ... input.mp2tbb.tmp
Input Correlated Electron Density   ... input.pmp2re
Input Energy Weighted Density       ... input.wmp2.tmp
Input SCF Electron Density          ... input.scfp

One-Electron Terms    ...
                        ... One-Electron Terms done
Prescreening matrices              ... done

Batch handling in the gradient evaluation:
Memory available                      ...  256.0 MB
Memory per occupied orbital in Q2     ...    1.8 MB
Memory per occupied orbital in Q3     ...    0.0 MB
Total memory requirement per |i>      ...    1.8 MB
Max. Number of orbitals possible      ...    140
Number of orbitals treated per batch  ...     41
Number of batches to be done          ...      1
Batch   0: i=    0 ...    40

---------------------------------------
MP2 TOTAL ENERGY:     -351.897512620 Eh
---------------------------------------

The final MP2 gradient
  0:  -0.00001634   0.00011209   0.00018366
  1:   0.00009726   0.00002525   0.00000864
  2:  -0.00012911  -0.00037830  -0.00031442
  3:  -0.00007317   0.00012165   0.00001998
  4:   0.00039015  -0.00009692  -0.00001318
  5:  -0.00007079   0.00005834   0.00003487
  6:  -0.00003532  -0.00007234  -0.00006186
  7:  -0.00016269   0.00023023   0.00014231

-----------------------------------
NORM OF THE MP2 GRADIENT:  0.000786
-----------------------------------

Maximum memory used throughout the entire MP2-calculation: 152.6 MB

-------------------------   --------------------
FINAL SINGLE POINT ENERGY      -351.897512619930
-------------------------   --------------------

------------------------------------------------------------------------------
                         ORCA GEOMETRY RELAXATION STEP
------------------------------------------------------------------------------

Reading the OPT-File                    .... done
Getting information on internals        .... done
Copying old internal coords+grads       .... done
Making the new internal coordinates     .... (new redundants).... done
Validating the new internal coordinates .... (new redundants).... done
Calculating the B-matrix                .... done
Calculating the G,G- and P matrices     .... done
Transforming gradient to internals      .... done
Projecting the internal gradient        .... done
Number of atoms                         ....   8
Number of internal coordinates          ....  25
Current Energy                          ....  -351.897512620 Eh
Current gradient norm                   ....     0.000785728 Eh/bohr
Maximum allowed component of the step   ....  0.300
Current trust radius                    ....  0.300
Evaluating the initial hessian          ....  (Almloef) done
Projecting the Hessian                  .... done
Diagonalizing the Hessian               .... done
Dimension of the hessian                ....  25
Lowest eigenvalues of the Hessian:
  0.017865998  0.020986240  0.030536344  0.146216445  0.151416378
Hessian has   0 negative eigenvalues
Taking P-RFO step
Searching for lambda that maximizes along the lowest mode
TS mode is mode number   0 with eigenvalue   0.01786600 and components:
   1.   -0.00000000
   2.    0.00000000
   3.    0.00000000
   4.   -0.00000000
   5.    0.00000000
   6.    0.00000000
   7.   -0.00000000
   8.    0.00000000
   9.    0.00000000
  10.   -0.00000000
  11.   -0.00000000
  12.   -0.00000000
  13.   -0.00000000
  14.   -0.00000000
  15.    0.00000000
  16.   -0.00000000
  17.    0.00000000
  18.    0.40824829
  19.    0.40824829
  20.    0.40824829
  21.    0.40824829
  22.    0.40824829
  23.    0.40824829
  24.   -0.00000000
  25.    0.00000000

Lambda that maximizes along the TS mode:       0.01786931
Searching for lambda that minimizes along all other modes
In cycle   1: lambdaN =  -0.00000437   step =   0.00000437
In cycle   2: lambdaN =  -0.00000437   step =   0.00000000
Lambda that minimizes along all other modes:  -0.00000437
Calculated stepsize too large (   0.7349 >    0.3000). Scaled with    0.4082.
The final length of the internal step   ....       0.3000
Converting the step to cartesian space:
 Initial RMS(Int)=    0.0600000000
Transforming coordinates:
 Iter   0:  RMS(Cart)=    0.0624210808 RMS(Int)=    0.0599388348
 Iter   1:  RMS(Cart)=    0.0019917316 RMS(Int)=    0.0017422302
 Iter   2:  RMS(Cart)=    0.0001262431 RMS(Int)=    0.0001180594
 Iter   3:  RMS(Cart)=    0.0000078963 RMS(Int)=    0.0000068847
 Iter   4:  RMS(Cart)=    0.0000005034 RMS(Int)=    0.0000004666
 Iter   5:  RMS(Cart)=    0.0000000314 RMS(Int)=    0.0000000272
done
Storing new coordinates                 .... done

                                .--------------------.
          ----------------------|Geometry convergence|-------------------------
          Item                value                   Tolerance       Converged
          ---------------------------------------------------------------------
          RMS gradient        0.0001312889            0.0000080000      NO
          MAX gradient        0.0002663825            0.0000300000      NO
          RMS step            0.0600000000            0.0001000000      NO
          MAX step            0.1224604000            0.0002000000      NO
          ........................................................
          Max(Bonds)      0.0001      Max(Angles)    0.01
          Max(Dihed)        7.02      Max(Improp)    0.00
          ---------------------------------------------------------------------

The optimization has not yet converged - more geometry cycles are needed


    ---------------------------------------------------------------------------
                         Redundant Internal Coordinates
                            (Angstroem and degrees)

        Definition                    Value    dE/dq     Step     New-Value  comp.(TS mode)
    ----------------------------------------------------------------------------
     1. B(H   1,C   0)                1.0917  0.000018 -0.0000    1.0917   
     2. B(C   2,C   0)                1.4550 -0.000021  0.0000    1.4550   
     3. B(F   3,C   2)                1.3554  0.000115 -0.0000    1.3553   
     4. B(O   4,C   2)                1.3520 -0.000247  0.0001    1.3521   
     5. B(H   5,C   0)                1.0919 -0.000015  0.0000    1.0919   
     6. B(F   6,C   0)                1.4173 -0.000000  0.0000    1.4173   
     7. B(H   7,O   4)                0.9754  0.000123 -0.0001    0.9753   
     8. A(H   5,C   0,F   6)          106.88  0.000004    0.00    106.88   
     9. A(C   2,C   0,F   6)          112.67  0.000028   -0.00    112.67   
    10. A(H   1,C   0,C   2)          109.88  0.000048   -0.00    109.88   
    11. A(H   1,C   0,H   5)          110.41  0.000023   -0.00    110.41   
    12. A(C   2,C   0,H   5)          109.87 -0.000096    0.01    109.87   
    13. A(H   1,C   0,F   6)          107.07 -0.000005   -0.00    107.06   
    14. A(C   0,C   2,O   4)          123.24  0.000266   -0.01    123.23   
    15. A(C   0,C   2,F   3)          121.15 -0.000063    0.00    121.15   
    16. A(F   3,C   2,O   4)          115.51 -0.000204    0.01    115.52   
    17. A(C   2,O   4,H   7)          108.23 -0.000184    0.01    108.25   
    18. D(F   3,C   2,C   0,H   1)     27.83 -0.000096   -7.02     20.81          0.41
    19. D(O   4,C   2,C   0,H   1)   -148.26 -0.000071   -7.02   -155.28          0.41
    20. D(F   3,C   2,C   0,H   5)    149.50 -0.000099   -7.02    142.48          0.41
    21. D(O   4,C   2,C   0,H   5)    -26.59 -0.000074   -7.02    -33.61          0.41
    22. D(O   4,C   2,C   0,F   6)     92.45 -0.000116   -7.02     85.43          0.41
    23. D(F   3,C   2,C   0,F   6)    -91.46 -0.000141   -7.02    -98.48          0.41
    24. D(H   7,O   4,C   2,C   0)   -158.31 -0.000249    0.20   -158.11   
    25. D(H   7,O   4,C   2,F   3)     25.40 -0.000229    0.17     25.57   
    ----------------------------------------------------------------------------

         *************************************************************
[...]
AutoCI program output          ... >input.lastautoci

	<< Calculating on displaced geometry   1 (of  48) >>
	<< Calculating on displaced geometry   2 (of  48) >>
	<< Calculating on displaced geometry   3 (of  48) >>
	<< Calculating on displaced geometry   4 (of  48) >>
	<< Calculating on displaced geometry   5 (of  48) >>
	<< Calculating on displaced geometry   6 (of  48) >>
	<< Calculating on displaced geometry   7 (of  48) >>
	<< Calculating on displaced geometry   8 (of  48) >>
	<< Calculating on displaced geometry   9 (of  48) >>
	<< Calculating on displaced geometry  10 (of  48) >>
	<< Calculating on displaced geometry  11 (of  48) >>
	<< Calculating on displaced geometry  12 (of  48) >>
	<< Calculating on displaced geometry  13 (of  48) >>
	<< Calculating on displaced geometry  14 (of  48) >>
	<< Calculating on displaced geometry  15 (of  48) >>
	<< Calculating on displaced geometry  16 (of  48) >>
	<< Calculating on displaced geometry  17 (of  48) >>
	<< Calculating on displaced geometry  18 (of  48) >>
	<< Calculating on displaced geometry  19 (of  48) >>
	<< Calculating on displaced geometry  20 (of  48) >>
	<< Calculating on displaced geometry  21 (of  48) >>
	<< Calculating on displaced geometry  22 (of  48) >>
	<< Calculating on displaced geometry  23 (of  48) >>
	<< Calculating on displaced geometry  24 (of  48) >>
	<< Calculating on displaced geometry  25 (of  48) >>
	<< Calculating on displaced geometry  26 (of  48) >>
	<< Calculating on displaced geometry  27 (of  48) >>
	<< Calculating on displaced geometry  28 (of  48) >>
	<< Calculating on displaced geometry  29 (of  48) >>
	<< Calculating on displaced geometry  30 (of  48) >>
	<< Calculating on displaced geometry  31 (of  48) >>
	<< Calculating on displaced geometry  32 (of  48) >>
	<< Calculating on displaced geometry  33 (of  48) >>
	<< Calculating on displaced geometry  34 (of  48) >>
	<< Calculating on displaced geometry  35 (of  48) >>
	<< Calculating on displaced geometry  36 (of  48) >>
	<< Calculating on displaced geometry  37 (of  48) >>
	<< Calculating on displaced geometry  38 (of  48) >>
	<< Calculating on displaced geometry  39 (of  48) >>
	<< Calculating on displaced geometry  40 (of  48) >>
	<< Calculating on displaced geometry  41 (of  48) >>
	<< Calculating on displaced geometry  42 (of  48) >>
	<< Calculating on displaced geometry  43 (of  48) >>
	<< Calculating on displaced geometry  44 (of  48) >>
	<< Calculating on displaced geometry  45 (of  48) >>
	<< Calculating on displaced geometry  46 (of  48) >>
	<< Calculating on displaced geometry  47 (of  48) >>
	<< Calculating on displaced geometry  48 (of  48) >>

-----------------------
VIBRATIONAL FREQUENCIES
-----------------------

Scaling factor for frequencies =  1.000000000 (already applied!)

   0:         0.00 cm**-1
   1:         0.00 cm**-1
   2:         0.00 cm**-1
   3:         0.00 cm**-1
   4:         0.00 cm**-1
   5:         0.00 cm**-1
   6:      -450.05 cm**-1 ***imaginary mode***
   7:        92.51 cm**-1
   8:       193.80 cm**-1
   9:       345.26 cm**-1
  10:       366.72 cm**-1
  11:       523.03 cm**-1
  12:       839.51 cm**-1
  13:       990.33 cm**-1
  14:      1007.91 cm**-1
  15:      1191.45 cm**-1
  16:      1278.92 cm**-1
  17:      1409.83 cm**-1
  18:      1425.68 cm**-1
  19:      1525.54 cm**-1
  20:      1580.04 cm**-1
  21:      3142.86 cm**-1
  22:      3214.79 cm**-1
  23:      3723.38 cm**-1


------------
NORMAL MODES
------------

These modes are the cartesian displacements weighted by the diagonal matrix
M(i,i)=1/sqrt(m[i]) where m[i] is the mass of the displaced atom
Thus, these vectors are normalized but *not* orthogonal

                  0          1          2          3          4          5    
      0       0.000000   0.000000   0.000000   0.000000   0.000000   0.000000
      1       0.000000   0.000000   0.000000   0.000000   0.000000   0.000000
      2       0.000000   0.000000   0.000000   0.000000   0.000000   0.000000
      3       0.000000   0.000000   0.000000   0.000000   0.000000   0.000000
      4       0.000000   0.000000   0.000000   0.000000   0.000000   0.000000
      5       0.000000   0.000000   0.000000   0.000000   0.000000   0.000000
      6       0.000000   0.000000   0.000000   0.000000   0.000000   0.000000
      7       0.000000   0.000000   0.000000   0.000000   0.000000   0.000000
      8       0.000000   0.000000   0.000000   0.000000   0.000000   0.000000
      9       0.000000   0.000000   0.000000   0.000000   0.000000   0.000000
     10       0.000000   0.000000   0.000000   0.000000   0.000000   0.000000
     11       0.000000   0.000000   0.000000   0.000000   0.000000   0.000000
     12       0.000000   0.000000   0.000000   0.000000   0.000000   0.000000
     13       0.000000   0.000000   0.000000   0.000000   0.000000   0.000000
     14       0.000000   0.000000   0.000000   0.000000   0.000000   0.000000
     15       0.000000   0.000000   0.000000   0.000000   0.000000   0.000000
     16       0.000000   0.000000   0.000000   0.000000   0.000000   0.000000
     17       0.000000   0.000000   0.000000   0.000000   0.000000   0.000000
     18       0.000000   0.000000   0.000000   0.000000   0.000000   0.000000
     19       0.000000   0.000000   0.000000   0.000000   0.000000   0.000000
     20       0.000000   0.000000   0.000000   0.000000   0.000000   0.000000
     21       0.000000   0.000000   0.000000   0.000000   0.000000   0.000000
     22       0.000000   0.000000   0.000000   0.000000   0.000000   0.000000
     23       0.000000   0.000000   0.000000   0.000000   0.000000   0.000000
                  6          7          8          9         10         11    
      0      -0.046443   0.084698  -0.008474  -0.249925  -0.034443  -0.015260
      1       0.010691   0.140926   0.004074  -0.057831  -0.098646  -0.209295
      2      -0.013710   0.152515   0.019768   0.109237  -0.117475   0.191382
      3      -0.152251   0.412443   0.013625  -0.227277  -0.203519   0.047604
      4       0.091769   0.414416   0.029748  -0.240044  -0.590410  -0.277839
      5      -0.025802   0.080922   0.012818   0.146895  -0.008433   0.204790
      6       0.665348   0.051369  -0.011686   0.168355   0.027028   0.160950
      7       0.117081   0.069051  -0.004889  -0.007896   0.091884  -0.161231
      8      -0.482763   0.067675  -0.009143   0.008934   0.105772   0.060771
      9      -0.162038  -0.215059   0.019626   0.199573  -0.053717  -0.132994
     10       0.001742   0.102481  -0.023369  -0.050033   0.163882  -0.052807
     11       0.124642   0.056932   0.030570   0.090287  -0.053298  -0.243544
     12      -0.196504   0.233346  -0.033530   0.230064   0.057055   0.062333
     13      -0.020598  -0.081322   0.009186  -0.287933  -0.086032   0.247463
     14       0.140162  -0.037262   0.016020   0.005569   0.118057   0.129817
     15      -0.111584  -0.088373   0.005521  -0.200529  -0.074632   0.049783
     16       0.055286   0.171051  -0.010144  -0.057142   0.027793  -0.247329
     17      -0.033713   0.552278   0.051024  -0.057807  -0.631545   0.161334
     18      -0.035066  -0.094153  -0.018149  -0.294191   0.017603  -0.041703
     19      -0.061494  -0.193617   0.038882   0.351889  -0.043543   0.087505
     20       0.082455  -0.196117  -0.026986  -0.187744   0.001270  -0.063619
     21      -0.277059   0.178720   0.725416  -0.468522   0.141574   0.469808
     22      -0.216457  -0.079088  -0.448061  -0.038695  -0.259379   0.358551
     23      -0.152545  -0.042243  -0.512266   0.251234  -0.113792   0.358018
                 12         13         14         15         16         17    
      0      -0.044692   0.605092  -0.088820   0.024989  -0.024774   0.065779
      1       0.338337  -0.101333  -0.126917  -0.062303  -0.040252  -0.043189
      2      -0.253247  -0.235629  -0.161504   0.026176  -0.047953   0.023386
      3      -0.168635   0.351211   0.118291   0.163611   0.649695  -0.408817
      4       0.341247  -0.036473   0.609536  -0.113232  -0.170056   0.300727
      5      -0.253533  -0.216912  -0.323120   0.036133  -0.056221  -0.029510
      6       0.004585   0.027238  -0.023205  -0.017020   0.045329   0.009976
      7       0.011767  -0.073094  -0.037098   0.117390   0.066682  -0.120057
      8       0.052182   0.025909  -0.021173   0.024694   0.065281   0.019991
      9      -0.042377  -0.001270  -0.000349  -0.010758  -0.005662  -0.001498
     10      -0.280149   0.045490   0.070139  -0.068695  -0.033556   0.032527
     11      -0.094185   0.010533   0.008653  -0.029433  -0.009504   0.009350
     12       0.154287  -0.026714   0.057985   0.045839  -0.038790   0.005638
     13       0.033995  -0.007823  -0.000368   0.067176  -0.021670   0.028379
     14       0.256857  -0.021514   0.082583   0.016423  -0.048153  -0.002935
     15      -0.182130   0.386871  -0.010942   0.038869  -0.611460  -0.644991
     16       0.456303  -0.021267  -0.319983  -0.091472   0.282669   0.430322
     17      -0.370977  -0.067054   0.578929   0.117133   0.165579  -0.120078
     18      -0.050511  -0.421435   0.017386  -0.009566   0.015449   0.015830
     19      -0.010076   0.071261   0.021516   0.005470   0.024836   0.013743
     20       0.029542   0.150278   0.023947   0.008202   0.027078  -0.014931
     21       0.130497   0.118091  -0.013949  -0.641938   0.148075  -0.208477
     22      -0.038916   0.059885  -0.056813  -0.326298   0.080737  -0.108350
     23       0.161816   0.093547  -0.004260  -0.619925   0.117236  -0.215505
                 18         19         20         21         22         23    
      0       0.027648   0.063839   0.066533   0.025102   0.033898  -0.000084
      1      -0.070795  -0.000031  -0.165617   0.038322   0.061388  -0.000095
      2      -0.017508  -0.026965   0.124786  -0.048418   0.066912   0.000260
      3      -0.704113  -0.480326   0.127657   0.037619  -0.037354   0.000434
      4       0.524052  -0.483223   0.532471   0.151442  -0.137050  -0.000561
      5      -0.091532   0.110949  -0.020947   0.693838  -0.683177  -0.001401
      6       0.118574  -0.061649  -0.155815   0.000909   0.000773  -0.000246
      7       0.197415   0.069932   0.201307  -0.001807   0.001510  -0.001420
      8       0.211319  -0.080457  -0.192148   0.001133   0.001530   0.000063
      9      -0.010429   0.002578   0.005716   0.000065   0.000093  -0.000170
     10      -0.071080  -0.015756  -0.044024   0.000228  -0.000547  -0.000243
     11      -0.033107  -0.000128  -0.003257   0.000113  -0.000308  -0.000319
     12      -0.077412   0.020332   0.046636  -0.000193  -0.000451  -0.004309
     13      -0.037044  -0.012041  -0.029729  -0.000059  -0.000041  -0.049531
     14      -0.090742   0.033810   0.076332  -0.000167  -0.000352   0.037005
     15       0.121933  -0.244649  -0.187593  -0.366269  -0.367239  -0.000678
     16      -0.140139   0.046283   0.123648  -0.583195  -0.596200   0.001379
     17       0.101095   0.638870  -0.560228  -0.124553  -0.115634  -0.000277
     18       0.005086   0.011889   0.001927   0.001056  -0.000148  -0.000197
     19      -0.003128   0.002079   0.004849  -0.000388  -0.000252   0.000108
     20      -0.019562  -0.007271  -0.004494  -0.000168  -0.000280  -0.000009
     21       0.169220   0.103507   0.239545   0.000633  -0.000333   0.079502
     22       0.093907   0.052914   0.128807   0.000604  -0.000517   0.805937
     23       0.113973   0.132997   0.318381  -0.002158  -0.000049  -0.583349


-----------
IR SPECTRUM
-----------

 Mode   freq       eps      Int      T**2         TX        TY        TZ
       cm**-1   L/(mol*cm) km/mol    a.u.
----------------------------------------------------------------------------
  7:     92.51   0.001070    5.41  0.003610  ( 0.022097  0.038857  0.040151)
  8:    193.80   0.028945  146.28  0.046607  ( 0.165881 -0.102918 -0.092186)
  9:    345.26   0.003029   15.31  0.002738  (-0.047345  0.003801  0.021953)
 10:    366.72   0.001418    7.17  0.001206  ( 0.010667 -0.020959 -0.025562)
 11:    523.03   0.009307   47.03  0.005553  ( 0.036454 -0.036929  0.053480)
 12:    839.51   0.011140   56.29  0.004141  (-0.015124  0.055417 -0.029000)
 13:    990.33   0.032626  164.88  0.010281  ( 0.093275 -0.039195 -0.006655)
 14:   1007.91   0.005979   30.22  0.001851  (-0.021136 -0.020143 -0.031604)
 15:   1191.45   0.007920   40.03  0.002074  (-0.027228  0.011704 -0.034585)
 16:   1278.92   0.010757   54.36  0.002625  ( 0.025061  0.022744  0.038465)
 17:   1409.83   0.008951   45.24  0.001981  ( 0.004320 -0.039781 -0.019497)
 18:   1425.68   0.037721  190.63  0.008257  ( 0.047497  0.037292  0.067896)
 19:   1525.54   0.000034    0.17  0.000007  ( 0.000924 -0.002479  0.000010)
 20:   1580.04   0.002628   13.28  0.000519  ( 0.000862  0.018080 -0.013837)
 21:   3142.86   0.003411   17.24  0.000339  ( 0.008262  0.008825 -0.013878)
 22:   3214.79   0.003012   15.22  0.000292  ( 0.005784  0.010600  0.012105)
 23:   3723.38   0.016804   84.92  0.001408  (-0.002266  0.025559 -0.027387)

* The epsilon (eps) is given for a Dirac delta lineshape.
** The dipole moment derivative (T) already includes vibrational overlap.

The first frequency considered to be a vibration is 7
The total number of vibrations considered is 17


--------------------------
THERMOCHEMISTRY AT 298.15K
--------------------------

Temperature         ... 298.15 K
Pressure            ... 1.00 atm
Total Mass          ... 81.04 AMU

Throughout the following assumptions are being made:
  (1) The electronic state is orbitally nondegenerate
      but the spin degeneracy is treated
  (2) There are no thermally accessible electronically excited states
  (3) Hindered rotations indicated by low frequency modes are not
      treated as such but are treated as vibrations and this may
      cause some error
  (4) All equations used are the standard statistical mechanics
      equations for an ideal gas
  (5) All vibrations are strictly harmonic

freq.      92.51  E(vib)   ...       0.47 
freq.     193.80  E(vib)   ...       0.36 
freq.     345.26  E(vib)   ...       0.23 
freq.     366.72  E(vib)   ...       0.22 
freq.     523.03  E(vib)   ...       0.13 
freq.     839.51  E(vib)   ...       0.04 
freq.     990.33  E(vib)   ...       0.02 
freq.    1007.91  E(vib)   ...       0.02 
freq.    1191.45  E(vib)   ...       0.01 
freq.    1278.92  E(vib)   ...       0.01 
freq.    1409.83  E(vib)   ...       0.00 
freq.    1425.68  E(vib)   ...       0.00 
freq.    1525.54  E(vib)   ...       0.00 
freq.    1580.04  E(vib)   ...       0.00 
freq.    3142.86  E(vib)   ...       0.00 
freq.    3214.79  E(vib)   ...       0.00 
freq.    3723.38  E(vib)   ...       0.00 

------------
INNER ENERGY
------------

The inner energy is: U= E(el) + E(ZPE) + E(vib) + E(rot) + E(trans)
    E(el)   - is the total energy from the electronic structure calculation
              = E(kin-el) + E(nuc-el) + E(el-el) + E(nuc-nuc)
    E(ZPE)  - the the zero temperature vibrational energy from the frequency calculation
    E(vib)  - the the finite temperature correction to E(ZPE) due to population
              of excited vibrational states
    E(rot)  - is the rotational thermal energy
    E(trans)- is the translational thermal energy

Summary of contributions to the inner energy U:
Electronic energy                ...   -351.89755605 Eh
Zero point energy                ...      0.05205972 Eh      32.67 kcal/mol
Thermal vibrational correction   ...      0.00243006 Eh       1.52 kcal/mol
Thermal rotational correction    ...      0.00141627 Eh       0.89 kcal/mol
Thermal translational correction ...      0.00141627 Eh       0.89 kcal/mol
-----------------------------------------------------------------------
Total thermal energy                   -351.84023373 Eh


Summary of corrections to the electronic energy:
(perhaps to be used in another calculation)
Total thermal correction                  0.00526260 Eh       3.30 kcal/mol
Non-thermal (ZPE) correction              0.05205972 Eh      32.67 kcal/mol
-----------------------------------------------------------------------
Total correction                          0.05732232 Eh      35.97 kcal/mol


--------
ENTHALPY
--------

The enthalpy is H = U + kB*T
                kB is Boltzmann's constant
Total free energy                 ...   -351.84023373 Eh 
Thermal Enthalpy correction       ...      0.00094421 Eh       0.59 kcal/mol
-----------------------------------------------------------------------
Total Enthalpy                    ...   -351.83928952 Eh


Note: Only C1 symmetry has been detected, increase convergence thresholds 
      if your molecule has a higher symmetry. Symmetry factor of 1.0 is   
      used for the rotational entropy correction. 
 

Note: Rotational entropy computed according to Herzberg 
Infrared and Raman Spectra, Chapter V,1, Van Nostrand Reinhold, 1945 
Point Group:  C1, Symmetry Number:   1  
Rotational constants in cm-1:     0.278581     0.118348     0.094307 

Vibrational entropy computed according to the QRRHO of S. Grimme
Chem.Eur.J. 2012 18 9955


-------
ENTROPY
-------

The entropy contributions are T*S = T*(S(el)+S(vib)+S(rot)+S(trans))
     S(el)   - electronic entropy
     S(vib)  - vibrational entropy
     S(rot)  - rotational entropy
     S(trans)- translational entropy
The entropies will be listed as multiplied by the temperature to get
units of energy

Electronic entropy                ...      0.00065446 Eh      0.41 kcal/mol
Vibrational entropy               ...      0.00417656 Eh      2.62 kcal/mol
Rotational entropy                ...      0.01223637 Eh      7.68 kcal/mol
Translational entropy             ...      0.01857352 Eh     11.66 kcal/mol
-----------------------------------------------------------------------
Final entropy term                ...      0.03564090 Eh     22.36 kcal/mol

In case the symmetry of your molecule has not been determined correctly
or in case you have a reason to use a different symmetry number we print 
out the resulting rotational entropy values for sn=1,12 :
 --------------------------------------------------------
|  sn= 1 | S(rot)=       0.01223637 Eh      7.68 kcal/mol|
|  sn= 2 | S(rot)=       0.01158191 Eh      7.27 kcal/mol|
|  sn= 3 | S(rot)=       0.01119908 Eh      7.03 kcal/mol|
|  sn= 4 | S(rot)=       0.01092745 Eh      6.86 kcal/mol|
|  sn= 5 | S(rot)=       0.01071677 Eh      6.72 kcal/mol|
|  sn= 6 | S(rot)=       0.01054462 Eh      6.62 kcal/mol|
|  sn= 7 | S(rot)=       0.01039908 Eh      6.53 kcal/mol|
|  sn= 8 | S(rot)=       0.01027300 Eh      6.45 kcal/mol|
|  sn= 9 | S(rot)=       0.01016179 Eh      6.38 kcal/mol|
|  sn=10 | S(rot)=       0.01006231 Eh      6.31 kcal/mol|
|  sn=11 | S(rot)=       0.00997232 Eh      6.26 kcal/mol|
|  sn=12 | S(rot)=       0.00989017 Eh      6.21 kcal/mol|
 --------------------------------------------------------


-------------------
GIBBS FREE ENERGY
-------------------

The Gibbs free energy is G = H - T*S

Total enthalpy                    ...   -351.83928952 Eh 
Total entropy correction          ...     -0.03564090 Eh    -22.36 kcal/mol
-----------------------------------------------------------------------
Final Gibbs free energy         ...   -351.87493042 Eh

For completeness - the Gibbs free energy minus the electronic energy
G-E(el)                           ...      0.02262563 Eh     14.20 kcal/mol



Timings for individual modules:

Sum of individual times         ...     1905.630 sec (=  31.760 min)
GTO integral calculation        ...       11.183 sec (=   0.186 min)   0.6 %
SCF iterations                  ...      206.112 sec (=   3.435 min)  10.8 %
MP2 module                      ...      550.623 sec (=   9.177 min)  28.9 %
Geometry relaxation             ...        2.041 sec (=   0.034 min)   0.1 %
Numerical frequency calculation ...     1135.670 sec (=  18.928 min)  59.6 %
                             ****ORCA TERMINATED NORMALLY****
TOTAL RUN TIME: 0 days 0 hours 31 minutes 38 seconds 204 msec
