
                                 *****************
                                 * O   R   C   A *
                                 *****************

                                            #,                                       
                                            ###                                      
                                            ####                                     
                                            #####                                    
                                            ######                                   
                                           ########,                                 
                                     ,,################,,,,,                         
                               ,,#################################,,                 
                          ,,##########################################,,             
                       ,#########################################, ''#####,          
                    ,#############################################,,   '####,        
                  ,##################################################,,,,####,       
                ,###########''''           ''''###############################       
              ,#####''   ,,,,##########,,,,          '''####'''          '####       
            ,##' ,,,,###########################,,,                        '##       
           ' ,,###''''                  '''############,,,                           
         ,,##''                                '''############,,,,        ,,,,,,###''
      ,#''                                            '''#######################'''  
     '                                                          ''''####''''         
             ,#######,   #######,   ,#######,      ##                                
            ,#'     '#,  ##    ##  ,#'     '#,    #''#        ######   ,####,        
            ##       ##  ##   ,#'  ##            #'  '#       #        #'  '#        
            ##       ##  #######   ##           ,######,      #####,   #    #        
            '#,     ,#'  ##    ##  '#,     ,#' ,#      #,         ##   #,  ,#        
             '#######'   ##     ##  '#######'  #'      '#     #####' # '####'        



                  #######################################################
                  #                        -***-                        #
                  #          Department of theory and spectroscopy      #
                  #    Directorship and core code : Frank Neese         #
                  #        Max Planck Institute fuer Kohlenforschung    #
                  #                Kaiser Wilhelm Platz 1               #
                  #                 D-45470 Muelheim/Ruhr               #
                  #                      Germany                        #
                  #                                                     #
                  #                  All rights reserved                #
                  #                        -***-                        #
                  #######################################################


                         Program Version 5.0.1 -  RELEASE  -


 With contributions from (in alphabetic order):
   Daniel Aravena         : Magnetic Suceptibility
   Michael Atanasov       : Ab Initio Ligand Field Theory (pilot matlab implementation)
   Alexander A. Auer      : GIAO ZORA, VPT2 properties, NMR spectrum
   Ute Becker             : Parallelization
   Giovanni Bistoni       : ED, misc. LED, open-shell LED, HFLD
   Martin Brehm           : Molecular dynamics
   Dmytro Bykov           : SCF Hessian
   Vijay G. Chilkuri      : MRCI spin determinant printing, contributions to CSF-ICE
   Dipayan Datta          : RHF DLPNO-CCSD density
   Achintya Kumar Dutta   : EOM-CC, STEOM-CC
   Dmitry Ganyushin       : Spin-Orbit,Spin-Spin,Magnetic field MRCI
   Miquel Garcia          : C-PCM and meta-GGA Hessian, CC/C-PCM, Gaussian charge scheme
   Yang Guo               : DLPNO-NEVPT2, F12-NEVPT2, CIM, IAO-localization
   Andreas Hansen         : Spin unrestricted coupled pair/coupled cluster methods
   Benjamin Helmich-Paris : MC-RPA, TRAH-SCF, COSX integrals
   Lee Huntington         : MR-EOM, pCC
   Robert Izsak           : Overlap fitted RIJCOSX, COSX-SCS-MP3, EOM
   Marcus Kettner         : VPT2
   Christian Kollmar      : KDIIS, OOCD, Brueckner-CCSD(T), CCSD density, CASPT2, CASPT2-K
   Simone Kossmann        : Meta GGA functionals, TD-DFT gradient, OOMP2, MP2 Hessian
   Martin Krupicka        : Initial AUTO-CI
   Lucas Lang             : DCDCAS
   Marvin Lechner         : AUTO-CI (C++ implementation), FIC-MRCC
   Dagmar Lenk            : GEPOL surface, SMD
   Dimitrios Liakos       : Extrapolation schemes; Compound Job, initial MDCI parallelization
   Dimitrios Manganas     : Further ROCIS development; embedding schemes
   Dimitrios Pantazis     : SARC Basis sets
   Anastasios Papadopoulos: AUTO-CI, single reference methods and gradients
   Taras Petrenko         : DFT Hessian,TD-DFT gradient, ASA, ECA, R-Raman, ABS, FL, XAS/XES, NRVS
   Peter Pinski           : DLPNO-MP2, DLPNO-MP2 Gradient
   Christoph Reimann      : Effective Core Potentials
   Marius Retegan         : Local ZFS, SOC
   Christoph Riplinger    : Optimizer, TS searches, QM/MM, DLPNO-CCSD(T), (RO)-DLPNO pert. Triples
   Tobias Risthaus        : Range-separated hybrids, TD-DFT gradient, RPA, STAB
   Michael Roemelt        : Original ROCIS implementation
   Masaaki Saitow         : Open-shell DLPNO-CCSD energy and density
   Barbara Sandhoefer     : DKH picture change effects
   Avijit Sen             : IP-ROCIS
   Kantharuban Sivalingam : CASSCF convergence, NEVPT2, FIC-MRCI
   Bernardo de Souza      : ESD, SOC TD-DFT
   Georgi Stoychev        : AutoAux, RI-MP2 NMR, DLPNO-MP2 response
   Willem Van den Heuvel  : Paramagnetic NMR
   Boris Wezisla          : Elementary symmetry handling
   Frank Wennmohs         : Technical directorship


 We gratefully acknowledge several colleagues who have allowed us to
 interface, adapt or use parts of their codes:
   Stefan Grimme, W. Hujo, H. Kruse, P. Pracht,  : VdW corrections, initial TS optimization,
                  C. Bannwarth, S. Ehlert          DFT functionals, gCP, sTDA/sTD-DF
   Ed Valeev, F. Pavosevic, A. Kumar             : LibInt (2-el integral package), F12 methods
   Garnet Chan, S. Sharma, J. Yang, R. Olivares  : DMRG
   Ulf Ekstrom                                   : XCFun DFT Library
   Mihaly Kallay                                 : mrcc  (arbitrary order and MRCC methods)
   Jiri Pittner, Ondrej Demel                    : Mk-CCSD
   Frank Weinhold                                : gennbo (NPA and NBO analysis)
   Christopher J. Cramer and Donald G. Truhlar   : smd solvation model
   Lars Goerigk                                  : TD-DFT with DH, B97 family of functionals
   V. Asgeirsson, H. Jonsson                     : NEB implementation
   FAccTs GmbH                                   : IRC, NEB, NEB-TS, DLPNO-Multilevel, CI-OPT
                                                   MM, QMMM, 2- and 3-layer-ONIOM, Crystal-QMMM,
                                                   LR-CPCM, SF, NACMEs, symmetry and pop. for TD-DFT,
                                                   nearIR, NL-DFT gradient (VV10), updates on ESD,
                                                   ML-optimized integration grids
   S Lehtola, MJT Oliveira, MAL Marques          : LibXC Library
   Liviu Ungur et al                             : ANISO software


 Your calculation uses the libint2 library for the computation of 2-el integrals
 For citations please refer to: http://libint.valeyev.net

 Your ORCA version has been built with support for libXC version: 5.1.0
 For citations please refer to: https://tddft.org/programs/libxc/

 This ORCA versions uses:
   CBLAS   interface :  Fast vector & matrix operations
   LAPACKE interface :  Fast linear algebra routines
   SCALAPACK package :  Parallel linear algebra routines
   Shared memory     :  Shared parallel matrices
   BLAS/LAPACK       :  OpenBLAS 0.3.15  USE64BITINT DYNAMIC_ARCH NO_AFFINITY Zen SINGLE_THREADED
        Core in use  :  Zen
   Copyright (c) 2011-2014, The OpenBLAS Project




***************************************
The coordinates will be read from file: input.xyz
***************************************


================================================================================

----- Orbital basis set information -----
Your calculation utilizes the basis: 6-31G(d)
   H-He, Li-Ne : W. J. Hehre, R. Ditchfield and J.A. Pople, J. Chem. Phys. 56, 2257 (1972).
                 Note: He and Ne are unpublished basis sets taken from the Gaussian program.
                 Note: Li and B from J. D. Dill and J. A. Pople, J. Chem. Phys. 62, 2921 (1975).
   Na - Ar     : M. M. Francl, W. J. Pietro, W. J. Hehre, J. S. Binkley, M. S. Gordon, 
                 D. J. DeFrees and J. A. Pople, J. Chem. Phys. 77, 3654 (1982).
   K - Zn      : V. A. Rassolov, J. A. Pople, M. A. Ratner, and T. L. Windus, J. Chem. Phys. 109, 1223 (1998).

================================================================================
                                        WARNINGS
                       Please study these warnings very carefully!
================================================================================


WARNING: Geometry Optimization
  ===> : Switching off AutoStart
         For restart on a previous wavefunction, please use MOREAD

WARNING: Post HF methods need fully converged wavefunctions
  ===> : Setting SCFConvForced true
         You can overwrite this default with %scf ConvForced false 


INFO   : the flag for use of the SHARK integral package has been found!

================================================================================
                                       INPUT FILE
================================================================================
NAME = input.orc
|  1> ! MP2 UHF 6-31G(d) OPTTS NumFreq NoFrozenCore VERYTIGHTSCF VERYTIGHTOPT
|  2> %geom
|  3> MaxIter 200
|  4> end
|  5> 
|  6> * XYZfile 0 2 input.xyz
|  7> 
|  8>                          ****END OF INPUT****
================================================================================

                       *****************************
                       * Geometry Optimization Run *
                       *****************************

Geometry optimization settings:
Update method            Update   .... Bofill
Choice of coordinates    CoordSys .... Z-matrix Internals
Initial Hessian          InHess   .... Almoef's Model

Convergence Tolerances:
Energy Change            TolE     ....  2.0000e-07 Eh
Max. Gradient            TolMAXG  ....  3.0000e-05 Eh/bohr
RMS Gradient             TolRMSG  ....  8.0000e-06 Eh/bohr
Max. Displacement        TolMAXD  ....  2.0000e-04 bohr
RMS Displacement         TolRMSD  ....  1.0000e-04 bohr
Strict Convergence                ....  False
------------------------------------------------------------------------------
                        ORCA OPTIMIZATION COORDINATE SETUP
------------------------------------------------------------------------------

The optimization will be done in new redundant internal coordinates
Making redundant internal coordinates   ...  (new redundants) done
Following TS mode number                ...     0
Evaluating the initial hessian          ...  (Almloef) done
Evaluating the coordinates              ...  done
Calculating the B-matrix                .... done
Calculating the G-matrix                .... done
Diagonalizing the G-matrix              .... done
The first mode is                       ....   37
The number of degrees of freedom        ....   18

    -----------------------------------------------------------------
                    Redundant Internal Coordinates


    -----------------------------------------------------------------
         Definition                    Initial Value    Approx d2E/dq
    -----------------------------------------------------------------
      1. B(C   1,C   0)                  1.4900         0.432708   
      2. B(F   2,C   1)                  1.3820         0.535464   
      3. B(O   3,C   1)                  1.4040         0.531544   
      4. B(O   3,C   0)                  1.8091         0.120005   
      5. B(H   4,O   3)                  1.2530         0.177216   
      6. B(H   4,C   0)                  1.3250         0.151880   
      7. B(H   5,C   0)                  1.0860         0.365431   
      8. B(H   6,C   0)                  1.0860         0.365431   
      9. B(H   7,C   1)                  1.0917         0.357922   
     10. A(H   4,C   0,H   5)          117.3571         0.255568   
     11. A(O   3,C   0,H   5)          141.2799         0.270087   
     12. A(H   4,C   0,H   6)          119.5487         0.255568   
     13. A(C   1,C   0,H   6)          108.8828         0.333087   
     14. A(C   1,C   0,H   4)           87.9793         0.289097   
     15. A(O   3,C   0,H   4)           43.8295         0.237451   
     16. A(C   1,C   0,O   3)           49.2128         0.306540   
     17. A(H   5,C   0,H   6)          110.0149         0.292186   
     18. A(O   3,C   0,H   6)          108.1190         0.270087   
     19. A(C   1,C   0,H   5)          110.3719         0.333087   
     20. A(C   0,C   1,O   3)           77.3198         0.393670   
     21. A(O   3,C   1,H   7)          130.0653         0.341428   
     22. A(F   2,C   1,H   7)          112.2931         0.340436   
     23. A(C   0,C   1,F   2)          108.1095         0.392473   
     24. A(F   2,C   1,O   3)          105.9261         0.404321   
     25. A(C   0,C   1,H   7)          117.5195         0.331943   
     26. A(C   0,O   3,C   1)           53.4674         0.315033   
     27. A(C   1,O   3,H   4)           94.8140         0.301790   
     28. A(C   0,O   3,H   4)           47.0802         0.240935   
     29. A(C   0,H   4,O   3)           89.0903         0.228753   
     30. D(F   2,C   1,C   0,H   6)     -4.8562         0.015723   
     31. D(F   2,C   1,C   0,H   5)    115.9997         0.015723   
     32. D(F   2,C   1,C   0,H   4)   -125.4847         0.015723   
     33. D(H   7,C   1,C   0,H   4)    106.1685         0.015723   
     34. D(H   7,C   1,C   0,O   3)    128.8071         0.015723   
     35. D(O   3,C   1,C   0,H   6)     97.9899         0.015723   
     36. D(F   2,C   1,C   0,O   3)   -102.8461         0.015723   
     37. D(O   3,C   1,C   0,H   4)    -22.6386         0.015723   
     38. D(H   7,C   1,C   0,H   5)    -12.3471         0.015723   
     39. D(H   7,C   1,C   0,H   6)   -133.2030         0.015723   
     40. D(O   3,C   1,C   0,H   5)   -141.1542         0.015723   
     41. D(C   1,O   3,C   0,H   6)    -99.6381         0.002510   
     42. D(C   1,O   3,C   0,H   5)     70.0541         0.002510   
     43. D(H   4,O   3,C   0,C   1)   -146.2563         0.002510   
     44. D(C   1,O   3,C   0,H   4)    146.2563         0.002510   
     45. D(H   4,O   3,C   1,H   7)    -91.3492         0.024366   
     46. D(H   4,O   3,C   1,F   2)    129.5861         0.024366   
     47. D(H   4,O   3,C   1,C   0)     24.0932         0.024366   
     48. D(C   0,O   3,C   1,H   7)   -115.4423         0.024366   
     49. D(C   0,O   3,C   1,F   2)    105.4929         0.024366   
     50. D(H   4,O   3,C   0,H   6)    114.1056         0.002510   
     51. D(H   4,O   3,C   0,H   5)    -76.2022         0.002510   
     52. D(C   0,H   4,O   3,C   1)    -26.6102         0.025985   
     53. D(O   3,H   4,C   0,H   6)    -85.7375         0.018421   
     54. D(O   3,H   4,C   0,H   5)    136.8461         0.018421   
     55. D(O   3,H   4,C   0,C   1)     24.8875         0.018421   
    -----------------------------------------------------------------

Number of atoms                         .... 8
Number of degrees of freedom            .... 55

         *************************************************************
         *                GEOMETRY OPTIMIZATION CYCLE   1            *
         *************************************************************
---------------------------------
CARTESIAN COORDINATES (ANGSTROEM)
---------------------------------
  C      1.068915    0.218191    0.057335
  C      0.560807    0.659565    1.386664
  F      1.469078    1.555575    1.917826
  O     -0.231409    1.398052    0.493218
  H     -0.091279    0.596018   -0.459207
  H      1.286734   -0.845664    0.070077
  H      1.968405    0.778963   -0.178992
  H      0.277614   -0.115661    2.101178

----------------------------
CARTESIAN COORDINATES (A.U.)
----------------------------
  NO LB      ZA    FRAG     MASS         X           Y           Z
   0 C     6.0000    0    12.011    2.019957    0.412322    0.108348
   1 C     6.0000    0    12.011    1.059771    1.246397    2.620415
   2 F     9.0000    0    18.998    2.776155    2.939610    3.624165
   3 O     8.0000    0    15.999   -0.437300    2.641936    0.932046
   4 H     1.0000    0     1.008   -0.172491    1.126311   -0.867776
   5 H     1.0000    0     1.008    2.431575   -1.598074    0.132426
   6 H     1.0000    0     1.008    3.719746    1.472026   -0.338245
   7 H     1.0000    0     1.008    0.524614   -0.218568    3.970650

--------------------------------
INTERNAL COORDINATES (ANGSTROEM)
--------------------------------
 C      0   0   0     0.000000000000     0.00000000     0.00000000
 C      1   0   0     1.490000000496     0.00000000     0.00000000
 F      2   1   0     1.382000000193   108.10948797     0.00000000
 O      2   1   3     1.404000000567    77.31981787   102.84611270
 H      4   2   1     1.252999999906    94.81397590    24.09315886
 H      1   2   3     1.085999999803   110.37191446   115.99966919
 H      1   2   3     1.086000000077   108.88283583   355.14377517
 H      2   1   3     1.091651634767   117.51946695   231.65322510

---------------------------
INTERNAL COORDINATES (A.U.)
---------------------------
 C      0   0   0     0.000000000000     0.00000000     0.00000000
 C      1   0   0     2.815691940480     0.00000000     0.00000000
 F      2   1   0     2.611601517444   108.10948797     0.00000000
 O      2   1   3     2.653175493098    77.31981787   102.84611270
 H      4   2   1     2.367826845627    94.81397590    24.09315886
 H      1   2   3     2.052242581067   110.37191446   115.99966919
 H      1   2   3     2.052242581585   108.88283583   355.14377517
 H      2   1   3     2.062922623357   117.51946695   231.65322510

---------------------
BASIS SET INFORMATION
---------------------
There are 4 groups of distinct atoms

 Group   1 Type C   : 10s4p1d contracted to 3s2p1d pattern {631/31/1}
 Group   2 Type F   : 10s4p1d contracted to 3s2p1d pattern {631/31/1}
 Group   3 Type O   : 10s4p1d contracted to 3s2p1d pattern {631/31/1}
 Group   4 Type H   : 4s contracted to 2s pattern {31}

Atom   0C    basis set group =>   1
Atom   1C    basis set group =>   1
Atom   2F    basis set group =>   2
Atom   3O    basis set group =>   3
Atom   4H    basis set group =>   4
Atom   5H    basis set group =>   4
Atom   6H    basis set group =>   4
Atom   7H    basis set group =>   4
------------------------------------------------------------------------------
                           ORCA GTO INTEGRAL CALCULATION
------------------------------------------------------------------------------
------------------------------------------------------------------------------
                   ___                                                        
                  /   \      - P O W E R E D   B Y -                         
                 /     \                                                     
                 |  |  |   _    _      __       _____    __    __             
                 |  |  |  | |  | |    /  \     |  _  \  |  |  /  |          
                  \  \/   | |  | |   /    \    | | | |  |  | /  /          
                 / \  \   | |__| |  /  /\  \   | |_| |  |  |/  /          
                |  |  |   |  __  | /  /__\  \  |    /   |      \           
                |  |  |   | |  | | |   __   |  |    \   |  |\   \          
                \     /   | |  | | |  |  |  |  | |\  \  |  | \   \       
                 \___/    |_|  |_| |__|  |__|  |_| \__\ |__|  \__/        
                                                                              
                      - O R C A' S   B I G   F R I E N D -                    
                                      &                                       
                       - I N T E G R A L  F E E D E R -                       
                                                                              
 v1 FN, 2020, v2 2021                                                         
------------------------------------------------------------------------------


Reading SHARK input file input.SHARKINP.tmp ... ok
----------------------
SHARK INTEGRAL PACKAGE
----------------------

Number of atoms                             ...      8
Number of basis functions                   ...     64
Number of shells                            ...     32
Maximum angular momentum                    ...      2
Integral batch strategy                     ... SHARK/LIBINT Hybrid
RI-J (if used) integral strategy            ... SPLIT-RIJ (Revised 2003 algorithm where possible)
Printlevel                                  ...      1
Contraction scheme used                     ... SEGMENTED contraction
Coulomb Range Separation                    ... NOT USED
Exchange Range Separation                   ... NOT USED
Finite Nucleus Model                        ... NOT USED
Auxiliary Coulomb fitting basis             ... NOT available
Auxiliary J/K fitting basis                 ... NOT available
Auxiliary Correlation fitting basis         ... NOT available
Auxiliary 'external' fitting basis          ... NOT available
Integral threshold                          ...     1.000000e-12
Primitive cut-off                           ...     1.000000e-14
Primitive pair pre-selection threshold      ...     1.000000e-14

Calculating pre-screening integrals         ... done (  0.0 sec) Dimension = 32
Organizing shell pair data                  ... done (  0.1 sec)
Shell pair information
Total number of shell pairs                 ...       528
Shell pairs after pre-screening             ...       526
Total number of primitive shell pairs       ...      3022
Primitive shell pairs kept                  ...      2387
          la=0 lb=0:    208 shell pairs
          la=1 lb=0:    160 shell pairs
          la=1 lb=1:     36 shell pairs
          la=2 lb=0:     80 shell pairs
          la=2 lb=1:     32 shell pairs
          la=2 lb=2:     10 shell pairs

Calculating one electron integrals          ... done (  0.0 sec)
Calculating Nuclear repulsion               ... done (  0.0 sec) ENN=    129.733373069896 Eh

SHARK setup successfully completed in   0.4 seconds

Maximum memory used throughout the entire GTOINT-calculation: 7.5 MB
-------------------------------------------------------------------------------
                                 ORCA SCF
-------------------------------------------------------------------------------

------------
SCF SETTINGS
------------
Hamiltonian:
 Ab initio Hamiltonian  Method          .... Hartree-Fock(GTOs)


General Settings:
 Integral files         IntName         .... input
 Hartree-Fock type      HFTyp           .... UHF
 Total Charge           Charge          ....    0
 Multiplicity           Mult            ....    2
 Number of Electrons    NEL             ....   33
 Basis Dimension        Dim             ....   64
 Nuclear Repulsion      ENuc            ....    129.7333730699 Eh

Convergence Acceleration:
 DIIS                   CNVDIIS         .... on
   Start iteration      DIISMaxIt       ....    12
   Startup error        DIISStart       ....  0.200000
   # of expansion vecs  DIISMaxEq       ....     5
   Bias factor          DIISBfac        ....   1.050
   Max. coefficient     DIISMaxC        ....  10.000
 Trust-Rad. Augm. Hess. CNVTRAH         .... auto
   Auto Start mean grad. ratio tolernc. ....  1.125000
   Auto Start start iteration           ....    20
   Auto Start num. interpolation iter.  ....    10
   Max. Number of Micro iterations      ....    16
   Max. Number of Macro iterations      .... Maxiter - #DIIS iter
   Number of Davidson start vectors     ....     2
   Converg. threshold I  (grad. norm)   ....   2.000e-06
   Converg. threshold II (energy diff.) ....   1.000e-09
   Grad. Scal. Fac. for Micro threshold ....   0.100
   Minimum threshold for Micro iter.    ....   0.010
   NR start threshold (gradient norm)   ....   0.001
   Initial trust radius                 ....   0.400
   Minimum AH scaling param. (alpha)    ....   1.000
   Maximum AH scaling param. (alpha)    .... 1000.000
   Orbital update algorithm             .... Taylor
   White noise on init. David. guess    .... on
   Maximum white noise                  ....   0.010
   Quad. conv. algorithm                .... NR
 SOSCF                  CNVSOSCF        .... off
 Level Shifting         CNVShift        .... on
   Level shift para.    LevelShift      ....    0.2500
   Turn off err/grad.   ShiftErr        ....    0.0010
 Zerner damping         CNVZerner       .... off
 Static damping         CNVDamp         .... on
   Fraction old density DampFac         ....    0.7000
   Max. Damping (<1)    DampMax         ....    0.9800
   Min. Damping (>=0)   DampMin         ....    0.0000
   Turn off err/grad.   DampErr         ....    0.1000
 Fernandez-Rico         CNVRico         .... off

SCF Procedure:
 Maximum # iterations   MaxIter         ....   125
 SCF integral mode      SCFMode         .... Direct
   Integral package                     .... SHARK and LIBINT hybrid scheme
 Reset frequency        DirectResetFreq ....    20
 Integral Threshold     Thresh          ....  1.000e-12 Eh
 Primitive CutOff       TCut            ....  1.000e-14 Eh

Convergence Tolerance:
 Convergence Check Mode ConvCheckMode   .... Total+1el-Energy
 Convergence forced     ConvForced      .... 1
 Energy Change          TolE            ....  1.000e-09 Eh
 1-El. energy change                    ....  1.000e-06 Eh
 DIIS Error             TolErr          ....  1.000e-08


Diagonalization of the overlap matrix:
Smallest eigenvalue                        ... 4.325e-03
Time for diagonalization                   ...    0.004 sec
Threshold for overlap eigenvalues          ... 1.000e-08
Number of eigenvalues below threshold      ... 0
Time for construction of square roots      ...    0.064 sec
Total time needed                          ...    0.068 sec

Time for model grid setup =    0.115 sec

------------------------------
INITIAL GUESS: MODEL POTENTIAL
------------------------------
Loading Hartree-Fock densities                     ... done
Calculating cut-offs                               ... done
Initializing the effective Hamiltonian             ... done
Setting up the integral package (SHARK)            ... done
Starting the Coulomb interaction                   ... done (   0.1 sec)
Reading the grid                                   ... done
Mapping shells                                     ... done
Starting the XC term evaluation                    ... done (   0.1 sec)
Transforming the Hamiltonian                       ... done (   0.0 sec)
Diagonalizing the Hamiltonian                      ... done (   0.0 sec)
Back transforming the eigenvectors                 ... done (   0.0 sec)
Now organizing SCF variables                       ... done
                      ------------------
                      INITIAL GUESS DONE (   0.3 sec)
                      ------------------
--------------
SCF ITERATIONS
--------------
ITER       Energy         Delta-E        Max-DP      RMS-DP      [F,P]     Damp
               ***  Starting incremental Fock matrix formation  ***
  0   -252.0523070679   0.000000000000 0.02283995  0.00134221  0.1565646 0.7000
  1   -252.0911282927  -0.038821224848 0.01758015  0.00101755  0.1014694 0.7000
                               ***Turning on DIIS***
  2   -252.1158335092  -0.024705216485 0.03810143  0.00225799  0.0616965 0.0000
  3   -252.0265051305   0.089328378710 0.01812782  0.00082658  0.0281782 0.0000
  4   -252.1998054549  -0.173300324415 0.00755495  0.00034493  0.0091633 0.0000
  5   -252.1799622486   0.019843206353 0.00536495  0.00028638  0.0062274 0.0000
  6   -252.1807091617  -0.000746913172 0.00512622  0.00024521  0.0043023 0.0000
  7   -252.1809731938  -0.000264032005 0.00322571  0.00016322  0.0020313 0.0000
  8   -252.1774888577   0.003484336101 0.00187677  0.00010624  0.0007315 0.0000
  9   -252.1763444493   0.001144408339 0.00044410  0.00002437  0.0003024 0.0000
 10   -252.1760586739   0.000285775376 0.00027384  0.00001234  0.0002217 0.0000
 11   -252.1760188468   0.000039827096 0.00031086  0.00001154  0.0001699 0.0000
 12   -252.1761229298  -0.000104083008 0.00028161  0.00000976  0.0001130 0.0000
 13   -252.1760324860   0.000090443890 0.00018616  0.00000625  0.0000594 0.0000
 14   -252.1760338014  -0.000001315446 0.00007384  0.00000258  0.0000241 0.0000
 15   -252.1760055428   0.000028258650 0.00002843  0.00000151  0.0000116 0.0000
 16   -252.1760085544  -0.000003011617 0.00001666  0.00000095  0.0000070 0.0000
 17   -252.1759976242   0.000010930139 0.00000786  0.00000052  0.0000038 0.0000
 18   -252.1759974741   0.000000150177 0.00000310  0.00000014  0.0000015 0.0000
 19   -252.1759996261  -0.000002152020 0.00000204  0.00000008  0.0000009 0.0000
               *** Restarting incremental Fock matrix formation ***
                                   *** Resetting DIIS ***
 20   -252.1759982503   0.000001375756 0.00000085  0.00000003  0.0000006 0.0000
 21   -252.1759981643   0.000000086043 0.00000079  0.00000003  0.0000005 0.0000
 22   -252.1759977573   0.000000406996 0.00000146  0.00000005  0.0000004 0.0000
 23   -252.1759980951  -0.000000337800 0.00000043  0.00000002  0.0000002 0.0000
 24   -252.1759982525  -0.000000157422 0.00000034  0.00000001  0.0000001 0.0000
 25   -252.1759982790  -0.000000026480 0.00000030  0.00000001  0.0000001 0.0000
                            ***DIIS convergence achieved***

               *****************************************************
               *                     SUCCESS                       *
               *           SCF CONVERGED AFTER  26 CYCLES          *
               *****************************************************


----------------
TOTAL SCF ENERGY
----------------

Total Energy       :         -252.17599826 Eh           -6862.05777 eV

Components:
Nuclear Repulsion  :          129.73337307 Eh            3530.22455 eV
Electronic Energy  :         -381.90937133 Eh          -10392.28233 eV
One Electron Energy:         -604.81770396 Eh          -16457.92643 eV
Two Electron Energy:          222.90833264 Eh            6065.64410 eV

Virial components:
Potential Energy   :         -504.47616155 Eh          -13727.49425 eV
Kinetic Energy     :          252.30016330 Eh            6865.43648 eV
Virial Ratio       :            1.99950787


---------------
SCF CONVERGENCE
---------------

  Last Energy change         ...    2.1763e-08  Tolerance :   1.0000e-09
  Last MAX-Density change    ...    3.1814e-08  Tolerance :   1.0000e-08
  Last RMS-Density change    ...    1.2781e-09  Tolerance :   1.0000e-09
  Last DIIS Error            ...    1.0553e-08  Tolerance :   1.0000e-08

             **** THE GBW FILE WAS UPDATED (input.gbw) ****
             **** DENSITY input.scfp WAS UPDATED ****
             **** ENERGY FILE WAS UPDATED (input.en.tmp) ****
----------------------
UHF SPIN CONTAMINATION
----------------------

Expectation value of <S**2>     :     0.777526
Ideal value S*(S+1) for S=0.5   :     0.750000
Deviation                       :     0.027526

             **** THE GBW FILE WAS UPDATED (input.gbw) ****
             **** DENSITY input.scfp WAS UPDATED ****
----------------
ORBITAL ENERGIES
----------------
                 SPIN UP ORBITALS
  NO   OCC          E(Eh)            E(eV) 
   0   1.0000     -26.284979      -715.2506 
   1   1.0000     -20.630028      -561.3716 
   2   1.0000     -11.375246      -309.5362 
   3   1.0000     -11.249736      -306.1209 
   4   1.0000      -1.604580       -43.6628 
   5   1.0000      -1.448418       -39.4135 
   6   1.0000      -1.017379       -27.6843 
   7   1.0000      -0.884771       -24.0758 
   8   1.0000      -0.758147       -20.6302 
   9   1.0000      -0.733352       -19.9555 
  10   1.0000      -0.696668       -18.9573 
  11   1.0000      -0.664786       -18.0897 
  12   1.0000      -0.597990       -16.2721 
  13   1.0000      -0.571028       -15.5385 
  14   1.0000      -0.545057       -14.8317 
  15   1.0000      -0.471645       -12.8341 
  16   1.0000      -0.400606       -10.9011 
  17   0.0000       0.244903         6.6642 
  18   0.0000       0.248913         6.7733 
  19   0.0000       0.273736         7.4487 
  20   0.0000       0.306164         8.3311 
  21   0.0000       0.320286         8.7154 
  22   0.0000       0.364628         9.9220 
  23   0.0000       0.477325        12.9887 
  24   0.0000       0.710227        19.3263 
  25   0.0000       0.740407        20.1475 
  26   0.0000       0.789041        21.4709 
  27   0.0000       0.802460        21.8361 
  28   0.0000       0.848075        23.0773 
  29   0.0000       0.911881        24.8135 
  30   0.0000       0.955640        26.0043 
  31   0.0000       0.990842        26.9622 
  32   0.0000       1.091151        29.6917 
  33   0.0000       1.130432        30.7606 
  34   0.0000       1.194219        32.4964 
  35   0.0000       1.229769        33.4637 
  36   0.0000       1.252678        34.0871 
  37   0.0000       1.358204        36.9586 
  38   0.0000       1.402250        38.1572 
  39   0.0000       1.542293        41.9679 
  40   0.0000       1.576872        42.9089 
  41   0.0000       1.614437        43.9311 
  42   0.0000       1.691338        46.0236 
  43   0.0000       1.712560        46.6011 
  44   0.0000       1.910998        52.0009 
  45   0.0000       1.982926        53.9582 
  46   0.0000       2.055971        55.9458 
  47   0.0000       2.087886        56.8143 
  48   0.0000       2.159870        58.7730 
  49   0.0000       2.172070        59.1050 
  50   0.0000       2.233751        60.7835 
  51   0.0000       2.257973        61.4426 
  52   0.0000       2.333764        63.5049 
  53   0.0000       2.385242        64.9057 
  54   0.0000       2.444533        66.5191 
  55   0.0000       2.485155        67.6245 
  56   0.0000       2.579289        70.1860 
  57   0.0000       2.702754        73.5457 
  58   0.0000       2.817329        76.6634 
  59   0.0000       2.868178        78.0471 
  60   0.0000       2.975452        80.9662 
  61   0.0000       3.092492        84.1510 
  62   0.0000       3.213441        87.4422 
  63   0.0000       3.420972        93.0894 

                 SPIN DOWN ORBITALS
  NO   OCC          E(Eh)            E(eV) 
   0   1.0000     -26.285214      -715.2570 
   1   1.0000     -20.593257      -560.3710 
   2   1.0000     -11.377283      -309.5916 
   3   1.0000     -11.235745      -305.7402 
   4   1.0000      -1.602677       -43.6111 
   5   1.0000      -1.348811       -36.7030 
   6   1.0000      -0.972193       -26.4547 
   7   1.0000      -0.861534       -23.4435 
   8   1.0000      -0.749558       -20.3965 
   9   1.0000      -0.685283       -18.6475 
  10   1.0000      -0.668276       -18.1847 
  11   1.0000      -0.593908       -16.1611 
  12   1.0000      -0.584456       -15.9038 
  13   1.0000      -0.556131       -15.1331 
  14   1.0000      -0.514823       -14.0090 
  15   1.0000      -0.437473       -11.9043 
  16   0.0000       0.136366         3.7107 
  17   0.0000       0.254753         6.9322 
  18   0.0000       0.262882         7.1534 
  19   0.0000       0.277917         7.5625 
  20   0.0000       0.314313         8.5529 
  21   0.0000       0.337405         9.1813 
  22   0.0000       0.374294        10.1850 
  23   0.0000       0.489940        13.3320 
  24   0.0000       0.715758        19.4768 
  25   0.0000       0.756781        20.5931 
  26   0.0000       0.807332        21.9686 
  27   0.0000       0.820762        22.3341 
  28   0.0000       0.867137        23.5960 
  29   0.0000       0.913587        24.8600 
  30   0.0000       0.981197        26.6997 
  31   0.0000       0.995561        27.0906 
  32   0.0000       1.096339        29.8329 
  33   0.0000       1.156428        31.4680 
  34   0.0000       1.208376        32.8816 
  35   0.0000       1.248995        33.9869 
  36   0.0000       1.270974        34.5850 
  37   0.0000       1.413889        38.4739 
  38   0.0000       1.442720        39.2584 
  39   0.0000       1.554914        42.3114 
  40   0.0000       1.584491        43.1162 
  41   0.0000       1.645440        44.7747 
  42   0.0000       1.693106        46.0718 
  43   0.0000       1.715902        46.6921 
  44   0.0000       1.940399        52.8010 
  45   0.0000       2.007226        54.6194 
  46   0.0000       2.072455        56.3944 
  47   0.0000       2.106381        57.3175 
  48   0.0000       2.173889        59.1545 
  49   0.0000       2.190846        59.6160 
  50   0.0000       2.244168        61.0669 
  51   0.0000       2.278118        61.9907 
  52   0.0000       2.349229        63.9258 
  53   0.0000       2.399593        65.2962 
  54   0.0000       2.464334        67.0579 
  55   0.0000       2.513496        68.3957 
  56   0.0000       2.588757        70.4437 
  57   0.0000       2.718092        73.9630 
  58   0.0000       2.829534        76.9955 
  59   0.0000       2.886084        78.5343 
  60   0.0000       2.997231        81.5588 
  61   0.0000       3.095634        84.2365 
  62   0.0000       3.230129        87.8963 
  63   0.0000       3.421183        93.0951 

                    ********************************
                    * MULLIKEN POPULATION ANALYSIS *
                    ********************************

--------------------------------------------
MULLIKEN ATOMIC CHARGES AND SPIN POPULATIONS
--------------------------------------------
   0 C :   -0.585133    0.452091
   1 C :    0.645415   -0.071864
   2 F :   -0.463643   -0.000257
   3 O :   -0.548555    0.694551
   4 H :    0.349809   -0.098826
   5 H :    0.165629    0.046191
   6 H :    0.228879   -0.027547
   7 H :    0.207599    0.005662
Sum of atomic charges         :    0.0000000
Sum of atomic spin populations:    1.0000000

-----------------------------------------------------
MULLIKEN REDUCED ORBITAL CHARGES AND SPIN POPULATIONS
-----------------------------------------------------
CHARGE
  0 C s       :     3.412175  s :     3.412175
      pz      :     0.970940  p :     3.122995
      px      :     1.081730
      py      :     1.070324
      dz2     :     0.015232  d :     0.049963
      dxz     :     0.006758
      dyz     :     0.004109
      dx2y2   :     0.012233
      dxy     :     0.011631
  1 C s       :     2.994406  s :     2.994406
      pz      :     0.853992  p :     2.248507
      px      :     0.674065
      py      :     0.720449
      dz2     :     0.015335  d :     0.111672
      dxz     :     0.023481
      dyz     :     0.034351
      dx2y2   :     0.015287
      dxy     :     0.023218
  2 F s       :     3.993426  s :     3.993426
      pz      :     1.910016  p :     5.453338
      px      :     1.772899
      py      :     1.770423
      dz2     :     0.001998  d :     0.016880
      dxz     :     0.002697
      dyz     :     0.003313
      dx2y2   :     0.002498
      dxy     :     0.006374
  3 O s       :     3.962221  s :     3.962221
      pz      :     1.317067  p :     4.554229
      px      :     1.696263
      py      :     1.540899
      dz2     :     0.003364  d :     0.032106
      dxz     :     0.005677
      dyz     :     0.011166
      dx2y2   :     0.004230
      dxy     :     0.007670
  4 H s       :     0.650191  s :     0.650191
  5 H s       :     0.834371  s :     0.834371
  6 H s       :     0.771121  s :     0.771121
  7 H s       :     0.792401  s :     0.792401

SPIN
  0 C s       :     0.106679  s :     0.106679
      pz      :     0.074655  p :     0.344310
      px      :     0.253785
      py      :     0.015870
      dz2     :     0.000656  d :     0.001101
      dxz     :     0.001318
      dyz     :     0.000209
      dx2y2   :    -0.000163
      dxy     :    -0.000918
  1 C s       :    -0.012768  s :    -0.012768
      pz      :    -0.008193  p :    -0.061488
      px      :    -0.033705
      py      :    -0.019590
      dz2     :    -0.000397  d :     0.002391
      dxz     :     0.001229
      dyz     :     0.001895
      dx2y2   :    -0.000233
      dxy     :    -0.000103
  2 F s       :     0.000185  s :     0.000185
      pz      :     0.000119  p :    -0.000365
      px      :    -0.000733
      py      :     0.000249
      dz2     :    -0.000008  d :    -0.000077
      dxz     :    -0.000026
      dyz     :    -0.000031
      dx2y2   :    -0.000018
      dxy     :     0.000005
  3 O s       :    -0.000468  s :    -0.000468
      pz      :     0.290101  p :     0.699302
      px      :     0.128744
      py      :     0.280457
      dz2     :    -0.000295  d :    -0.004283
      dxz     :    -0.000411
      dyz     :    -0.001962
      dx2y2   :    -0.000060
      dxy     :    -0.001555
  4 H s       :    -0.098826  s :    -0.098826
  5 H s       :     0.046191  s :     0.046191
  6 H s       :    -0.027547  s :    -0.027547
  7 H s       :     0.005662  s :     0.005662


                     *******************************
                     * LOEWDIN POPULATION ANALYSIS *
                     *******************************

-------------------------------------------
LOEWDIN ATOMIC CHARGES AND SPIN POPULATIONS
-------------------------------------------
   0 C :   -0.358857    0.373575
   1 C :    0.172619   -0.038030
   2 F :   -0.217797   -0.002619
   3 O :   -0.317508    0.705440
   4 H :    0.302530   -0.062692
   5 H :    0.122610    0.035964
   6 H :    0.157525   -0.014619
   7 H :    0.138879    0.002981

----------------------------------------------------
LOEWDIN REDUCED ORBITAL CHARGES AND SPIN POPULATIONS
----------------------------------------------------
CHARGE
  0 C s       :     3.019771  s :     3.019771
      pz      :     1.088181  p :     3.247690
      px      :     1.062908
      py      :     1.096601
      dz2     :     0.028124  d :     0.091396
      dxz     :     0.013511
      dyz     :     0.008174
      dx2y2   :     0.019095
      dxy     :     0.022493
  1 C s       :     2.883702  s :     2.883702
      pz      :     0.990172  p :     2.702359
      px      :     0.820785
      py      :     0.891402
      dz2     :     0.031246  d :     0.241321
      dxz     :     0.054486
      dyz     :     0.071814
      dx2y2   :     0.031445
      dxy     :     0.052329
  2 F s       :     3.758698  s :     3.758698
      pz      :     1.895869  p :     5.427860
      px      :     1.763467
      py      :     1.768524
      dz2     :     0.004051  d :     0.031240
      dxz     :     0.005092
      dyz     :     0.006356
      dx2y2   :     0.005615
      dxy     :     0.010126
  3 O s       :     3.669021  s :     3.669021
      pz      :     1.334329  p :     4.588458
      px      :     1.695999
      py      :     1.558130
      dz2     :     0.008652  d :     0.060029
      dxz     :     0.009996
      dyz     :     0.018873
      dx2y2   :     0.005476
      dxy     :     0.017033
  4 H s       :     0.697470  s :     0.697470
  5 H s       :     0.877390  s :     0.877390
  6 H s       :     0.842475  s :     0.842475
  7 H s       :     0.861121  s :     0.861121

SPIN
  0 C s       :     0.076007  s :     0.076007
      pz      :     0.069712  p :     0.289958
      px      :     0.203706
      py      :     0.016540
      dz2     :     0.003415  d :     0.007611
      dxz     :     0.001637
      dyz     :     0.000175
      dx2y2   :    -0.000488
      dxy     :     0.002871
  1 C s       :    -0.005863  s :    -0.005863
      pz      :    -0.006695  p :    -0.041646
      px      :    -0.022140
      py      :    -0.012811
      dz2     :     0.000275  d :     0.009479
      dxz     :     0.004083
      dyz     :     0.004940
      dx2y2   :    -0.000223
      dxy     :     0.000404
  2 F s       :    -0.000390  s :    -0.000390
      pz      :    -0.000137  p :    -0.001664
      px      :    -0.001317
      py      :    -0.000211
      dz2     :    -0.000036  d :    -0.000565
      dxz     :    -0.000104
      dyz     :    -0.000066
      dx2y2   :    -0.000330
      dxy     :    -0.000028
  3 O s       :     0.026045  s :     0.026045
      pz      :     0.278723  p :     0.680413
      px      :     0.125903
      py      :     0.275787
      dz2     :    -0.000358  d :    -0.001018
      dxz     :     0.000055
      dyz     :    -0.001509
      dx2y2   :    -0.000131
      dxy     :     0.000926
  4 H s       :    -0.062692  s :    -0.062692
  5 H s       :     0.035964  s :     0.035964
  6 H s       :    -0.014619  s :    -0.014619
  7 H s       :     0.002981  s :     0.002981


                      *****************************
                      * MAYER POPULATION ANALYSIS *
                      *****************************

  NA   - Mulliken gross atomic population
  ZA   - Total nuclear charge
  QA   - Mulliken gross atomic charge
  VA   - Mayer's total valence
  BVA  - Mayer's bonded valence
  FA   - Mayer's free valence

  ATOM       NA         ZA         QA         VA         BVA        FA
  0 C      6.5851     6.0000    -0.5851     3.7311     3.5599     0.1711
  1 C      5.3546     6.0000     0.6454     3.4202     3.4167     0.0035
  2 F      9.4636     9.0000    -0.4636     0.7923     0.7923     0.0000
  3 O      8.5486     8.0000    -0.5486     1.8163     1.3368     0.4795
  4 H      0.6502     1.0000     0.3498     0.8606     0.8499     0.0108
  5 H      0.8344     1.0000     0.1656     0.9266     0.9244     0.0022
  6 H      0.7711     1.0000     0.2289     0.9220     0.9213     0.0008
  7 H      0.7924     1.0000     0.2076     0.9117     0.9117     0.0000

  Mayer bond orders larger than 0.100000
B(  0-C ,  1-C ) :   0.9245 B(  0-C ,  3-O ) :   0.1948 B(  0-C ,  4-H ) :   0.5890 
B(  0-C ,  5-H ) :   0.9299 B(  0-C ,  6-H ) :   0.9306 B(  1-C ,  2-F ) :   0.7608 
B(  1-C ,  3-O ) :   0.8445 B(  1-C ,  7-H ) :   0.9169 B(  3-O ,  4-H ) :   0.2642 


-------
TIMINGS
-------

Total SCF time: 0 days 0 hours 0 min 13 sec 

Total time                  ....      13.169 sec
Sum of individual times     ....      11.780 sec  ( 89.5%)

Fock matrix formation       ....      11.138 sec  ( 84.6%)
Diagonalization             ....       0.085 sec  (  0.6%)
Density matrix formation    ....       0.002 sec  (  0.0%)
Population analysis         ....       0.199 sec  (  1.5%)
Initial guess               ....       0.155 sec  (  1.2%)
Orbital Transformation      ....       0.000 sec  (  0.0%)
Orbital Orthonormalization  ....       0.000 sec  (  0.0%)
DIIS solution               ....       0.086 sec  (  0.7%)

Maximum memory used throughout the entire SCF-calculation: 228.6 MB

------------------------------------------------------------------------------
                                ORCA  MP2 
------------------------------------------------------------------------------

MP2 will be done in the AO integral direct mode
The Q1-step will be done using symmetric double matrices
Dimension of the basis                    ...   64
Memory devoted for MP2                    ...  256 MB   
Memory needed for all in one shot         ...   18 MB
Number of MOs that can be treated together...  251      
MP2 density construction                  ... relaxed
The MP2 gradient is requested => amplitudes will be stored on disk
Total number of MOs              ...   17
Number of MOs treated per batch  ...   17 
Number of batches necessary      ...    1 
OPERATORS   0/  0 PASS   0
OPERATORS   0/  1 PASS   0
Total number of MOs              ...   17
Number of MOs treated per batch  ...   16 
Number of batches necessary      ...    1 
OPERATORS   1/  0 PASS   0
OPERATORS   1/  1 PASS   0

Correlation energy components
 E2 and T2 for alpha/alpha pairs :     -0.083630819 Eh
 E2 and T2 for beta/beta   pairs :     -0.078554715 Eh
 E2 and T2 for alpha/beta  pairs :     -0.442294132 Eh

-----------------------------------------------
 MP2 CORRELATION ENERGY   :     -0.604479666 Eh
-----------------------------------------------


---------------------
MP2 DENSITY FORMATION
---------------------

Completing the external part of the density      ... done
Storing the unrelaxed density                    ... done

Calculating G(D)                                 ... done
Completing the Lagrangian                        ... done
Solving the Z-vector equations                   ... 

------------------------------------------------------------------------------
                           ORCA CP-SCF CALCULATION
------------------------------------------------------------------------------

Input orbitals are from        ... input.gbw
Input Perturbation             ... input.pin.tmp
Wavefunction output            ... input.pout.tmp
Perturbation mode              ... Real perturbation (singlet)
Solver                         ... POPLE
Max. number of iterations      ... 128
Convergence tolerance          ... 3.000e-05
Integral handling              ... Direct
Number of perturbations        ... 1
Number of operators            ... 2
Orbital ranges used for CP-SCF:
 Operator 0:  Orbitals   0... 16  to  17... 63
 Operator 1:  Orbitals   0... 15  to  16... 63
Variables per perturbation     ... 1567
Memory available               ... 1017.6 MB
Memory needed per perturbation ...   3.2 MB
Perturbations treated per batch... 1
Number of batches              ... 1
     CP-SCF ITERATION   0:   7.4631e-02 (   0.3 sec)
     CP-SCF ITERATION   1:   3.5037e-02 (   0.3 sec)
     CP-SCF ITERATION   2:   1.2918e-02 (   0.3 sec)
     CP-SCF ITERATION   3:   6.0793e-03 (   0.3 sec)
     CP-SCF ITERATION   4:   3.0614e-03 (   0.2 sec)
     CP-SCF ITERATION   5:   2.2939e-03 (   0.2 sec)
     CP-SCF ITERATION   6:   1.2444e-03 (   0.2 sec)
     CP-SCF ITERATION   7:   5.9135e-04 (   0.2 sec)
     CP-SCF ITERATION   8:   2.8115e-04 (   0.2 sec)
     CP-SCF ITERATION   9:   1.5817e-04 (   0.2 sec)
     CP-SCF ITERATION  10:   7.6361e-05 (   0.2 sec)
     CP-SCF ITERATION  11:   2.7504e-05 (   0.2 sec)
                    *** THE CP-SCF HAS CONVERGED ***
                                                 ... done
Finalizing the relaxed density                   ... done
Transforming P to the AO basis                   ... done
Storing the relaxed density                      ... done

------------------------------------
ENERGY WEIGHTED DENSITY FINALIZATION
------------------------------------

Gathering the parts of the W-matrix              ...                                                                                                           done
Forming the Z-density                            ... done
Transforming Z to the AO basis                   ... done
Calculating G(Z)                                 ... done
Finalizing the W-matrix                          ...                                                                                                           done
Transforming W to the AO basis and storing       ... done

                *********************************************
                * UNRELAXED MP2 DENSITY POPULATION ANALYSIS *
                *********************************************

------------------------------------------------------------------------------
                           ORCA POPULATION ANALYSIS
------------------------------------------------------------------------------
Input electron density              ... input.pmp2ur
Input spin density                  ... input.rmp2ur
BaseName (.gbw .S,...)              ... input

                    ********************************
                    * MULLIKEN POPULATION ANALYSIS *
                    ********************************

------------------------------------------
MULLIKEN ATOMIC CHARGES AND SPIN DENSITIES
------------------------------------------
   0 C :   -0.588847    0.447811
   1 C :    0.623301   -0.069760
   2 F :   -0.451959   -0.000390
   3 O :   -0.539219    0.690802
   4 H :    0.349323   -0.093460
   5 H :    0.167633    0.046377
   6 H :    0.230514   -0.026959
   7 H :    0.209253    0.005578
Sum of atomic charges       :    0.0000000
Sum of atomic spin densities:    1.0000000

---------------------------------------------------
MULLIKEN REDUCED ORBITAL CHARGES AND SPIN DENSITIES
---------------------------------------------------
CHARGE
  0 C s       :     3.408150  s :     3.408150
      pz      :     0.968993  p :     3.114964
      px      :     1.077924
      py      :     1.068047
      dz2     :     0.018017  d :     0.065733
      dxz     :     0.010059
      dyz     :     0.007448
      dx2y2   :     0.015479
      dxy     :     0.014728
  1 C s       :     2.994969  s :     2.994969
      pz      :     0.853383  p :     2.257841
      px      :     0.679895
      py      :     0.724563
      dz2     :     0.018214  d :     0.123889
      dxz     :     0.025758
      dyz     :     0.036736
      dx2y2   :     0.017914
      dxy     :     0.025268
  2 F s       :     3.991408  s :     3.991408
      pz      :     1.901052  p :     5.424247
      px      :     1.762903
      py      :     1.760292
      dz2     :     0.005842  d :     0.036304
      dxz     :     0.006569
      dyz     :     0.007159
      dx2y2   :     0.006548
      dxy     :     0.010185
  3 O s       :     3.956437  s :     3.956437
      pz      :     1.310771  p :     4.529267
      px      :     1.685192
      py      :     1.533305
      dz2     :     0.007752  d :     0.053515
      dxz     :     0.009947
      dyz     :     0.015200
      dx2y2   :     0.008752
      dxy     :     0.011864
  4 H s       :     0.650677  s :     0.650677
  5 H s       :     0.832367  s :     0.832367
  6 H s       :     0.769486  s :     0.769486
  7 H s       :     0.790747  s :     0.790747

SPIN
  0 C s       :     0.105620  s :     0.105620
      pz      :     0.073280  p :     0.339610
      px      :     0.250010
      py      :     0.016321
      dz2     :     0.000914  d :     0.002580
      dxz     :     0.001685
      dyz     :     0.000272
      dx2y2   :     0.000176
      dxy     :    -0.000467
  1 C s       :    -0.012545  s :    -0.012545
      pz      :    -0.007908  p :    -0.059328
      px      :    -0.032586
      py      :    -0.018834
      dz2     :    -0.000400  d :     0.002112
      dxz     :     0.001144
      dyz     :     0.001817
      dx2y2   :    -0.000284
      dxy     :    -0.000164
  2 F s       :     0.000177  s :     0.000177
      pz      :     0.000111  p :    -0.000494
      px      :    -0.000795
      py      :     0.000190
      dz2     :    -0.000007  d :    -0.000072
      dxz     :    -0.000026
      dyz     :    -0.000029
      dx2y2   :    -0.000017
      dxy     :     0.000007
  3 O s       :     0.002115  s :     0.002115
      pz      :     0.284603  p :     0.689622
      px      :     0.128079
      py      :     0.276940
      dz2     :     0.000413  d :    -0.000934
      dxz     :     0.000165
      dyz     :    -0.001003
      dx2y2   :     0.000431
      dxy     :    -0.000940
  4 H s       :    -0.093460  s :    -0.093460
  5 H s       :     0.046377  s :     0.046377
  6 H s       :    -0.026959  s :    -0.026959
  7 H s       :     0.005578  s :     0.005578


                     *******************************
                     * LOEWDIN POPULATION ANALYSIS *
                     *******************************

-----------------------------------------
LOEWDIN ATOMIC CHARGES AND SPIN DENSITIES
-----------------------------------------
   0 C :   -0.366607    0.370908
   1 C :    0.154420   -0.035763
   2 F :   -0.207782   -0.002640
   3 O :   -0.309294    0.700418
   4 H :    0.302228   -0.057898
   5 H :    0.125530    0.036197
   6 H :    0.160143   -0.014167
   7 H :    0.141362    0.002944

--------------------------------------------------
LOEWDIN REDUCED ORBITAL CHARGES AND SPIN DENSITIES
--------------------------------------------------
CHARGE
  0 C s       :     3.019589  s :     3.019589
      pz      :     1.083680  p :     3.237458
      px      :     1.059726
      py      :     1.094052
      dz2     :     0.031487  d :     0.109560
      dxz     :     0.017220
      dyz     :     0.011886
      dx2y2   :     0.022810
      dxy     :     0.026158
  1 C s       :     2.885355  s :     2.885355
      pz      :     0.987592  p :     2.705063
      px      :     0.824399
      py      :     0.893072
      dz2     :     0.034565  d :     0.255162
      dxz     :     0.057185
      dyz     :     0.074485
      dx2y2   :     0.034182
      dxy     :     0.054745
  2 F s       :     3.757274  s :     3.757274
      pz      :     1.886880  p :     5.399097
      px      :     1.753681
      py      :     1.758536
      dz2     :     0.007956  d :     0.051412
      dxz     :     0.009132
      dyz     :     0.010318
      dx2y2   :     0.009636
      dxy     :     0.014369
  3 O s       :     3.663903  s :     3.663903
      pz      :     1.328183  p :     4.562890
      px      :     1.684754
      py      :     1.549953
      dz2     :     0.013058  d :     0.082501
      dxz     :     0.014768
      dyz     :     0.023300
      dx2y2   :     0.010040
      dxy     :     0.021334
  4 H s       :     0.697772  s :     0.697772
  5 H s       :     0.874470  s :     0.874470
  6 H s       :     0.839857  s :     0.839857
  7 H s       :     0.858638  s :     0.858638

SPIN
  0 C s       :     0.075127  s :     0.075127
      pz      :     0.068494  p :     0.286578
      px      :     0.200918
      py      :     0.017165
      dz2     :     0.003660  d :     0.009203
      dxz     :     0.002007
      dyz     :     0.000247
      dx2y2   :    -0.000112
      dxy     :     0.003400
  1 C s       :    -0.005610  s :    -0.005610
      pz      :    -0.006067  p :    -0.039305
      px      :    -0.021139
      py      :    -0.012098
      dz2     :     0.000337  d :     0.009152
      dxz     :     0.003938
      dyz     :     0.004804
      dx2y2   :    -0.000275
      dxy     :     0.000347
  2 F s       :    -0.000386  s :    -0.000386
      pz      :    -0.000126  p :    -0.001717
      px      :    -0.001340
      py      :    -0.000251
      dz2     :    -0.000034  d :    -0.000537
      dxz     :    -0.000100
      dyz     :    -0.000060
      dx2y2   :    -0.000317
      dxy     :    -0.000026
  3 O s       :     0.028057  s :     0.028057
      pz      :     0.273386  p :     0.670266
      px      :     0.124940
      py      :     0.271940
      dz2     :     0.000320  d :     0.002094
      dxz     :     0.000590
      dyz     :    -0.000598
      dx2y2   :     0.000352
      dxy     :     0.001430
  4 H s       :    -0.057898  s :    -0.057898
  5 H s       :     0.036197  s :     0.036197
  6 H s       :    -0.014167  s :    -0.014167
  7 H s       :     0.002944  s :     0.002944


                      *****************************
                      * MAYER POPULATION ANALYSIS *
                      *****************************

  NA   - Mulliken gross atomic population
  ZA   - Total nuclear charge
  QA   - Mulliken gross atomic charge
  VA   - Mayer's total valence
  BVA  - Mayer's bonded valence
  FA   - Mayer's free valence

  ATOM       NA         ZA         QA         VA         BVA        FA
  0 C      6.5888     6.0000    -0.5888     3.8295     3.3893     0.4402
  1 C      5.3767     6.0000     0.6233     3.4938     3.2338     0.2600
  2 F      9.4520     9.0000    -0.4520     1.0658     0.7467     0.3191
  3 O      8.5392     8.0000    -0.5392     2.0581     1.2446     0.8135
  4 H      0.6507     1.0000     0.3493     0.8627     0.8062     0.0565
  5 H      0.8324     1.0000     0.1676     0.9297     0.8876     0.0421
  6 H      0.7695     1.0000     0.2305     0.9238     0.8869     0.0369
  7 H      0.7907     1.0000     0.2093     0.9138     0.8778     0.0360

  Mayer bond orders larger than 0.100000
B(  0-C ,  1-C ) :   0.8714 B(  0-C ,  3-O ) :   0.1761 B(  0-C ,  4-H ) :   0.5593 
B(  0-C ,  5-H ) :   0.8952 B(  0-C ,  6-H ) :   0.8973 B(  1-C ,  2-F ) :   0.7198 
B(  1-C ,  3-O ) :   0.7887 B(  1-C ,  7-H ) :   0.8850 B(  3-O ,  4-H ) :   0.2516 



                *******************************************
                * RELAXED MP2 DENSITY POPULATION ANALYSIS *
                *******************************************

------------------------------------------------------------------------------
                           ORCA POPULATION ANALYSIS
------------------------------------------------------------------------------
Input electron density              ... input.pmp2re
Input spin density                  ... input.rmp2re
BaseName (.gbw .S,...)              ... input

                    ********************************
                    * MULLIKEN POPULATION ANALYSIS *
                    ********************************

------------------------------------------
MULLIKEN ATOMIC CHARGES AND SPIN DENSITIES
------------------------------------------
   0 C :   -0.567539    0.368673
   1 C :    0.515731   -0.006917
   2 F :   -0.375400   -0.003940
   3 O :   -0.516299    0.558850
   4 H :    0.361889    0.030849
   5 H :    0.170774    0.064352
   6 H :    0.223450   -0.013975
   7 H :    0.187394    0.002109
Sum of atomic charges       :    0.0000000
Sum of atomic spin densities:    1.0000000

---------------------------------------------------
MULLIKEN REDUCED ORBITAL CHARGES AND SPIN DENSITIES
---------------------------------------------------
CHARGE
  0 C s       :     3.382907  s :     3.382907
      pz      :     1.010903  p :     3.124764
      px      :     1.049613
      py      :     1.064248
      dz2     :     0.015310  d :     0.059869
      dxz     :     0.009249
      dyz     :     0.007327
      dx2y2   :     0.013987
      dxy     :     0.013996
  1 C s       :     3.018851  s :     3.018851
      pz      :     0.861498  p :     2.346128
      px      :     0.724242
      py      :     0.760388
      dz2     :     0.018546  d :     0.119290
      dxz     :     0.024123
      dyz     :     0.034446
      dx2y2   :     0.018732
      dxy     :     0.023443
  2 F s       :     3.979319  s :     3.979319
      pz      :     1.883729  p :     5.360510
      px      :     1.741547
      py      :     1.735233
      dz2     :     0.005841  d :     0.035571
      dxz     :     0.006491
      dyz     :     0.007091
      dx2y2   :     0.006818
      dxy     :     0.009329
  3 O s       :     3.940470  s :     3.940470
      pz      :     1.327435  p :     4.524122
      px      :     1.650739
      py      :     1.545947
      dz2     :     0.007814  d :     0.051707
      dxz     :     0.009246
      dyz     :     0.013859
      dx2y2   :     0.009177
      dxy     :     0.011612
  4 H s       :     0.638111  s :     0.638111
  5 H s       :     0.829226  s :     0.829226
  6 H s       :     0.776550  s :     0.776550
  7 H s       :     0.812606  s :     0.812606

SPIN
  0 C s       :     0.087474  s :     0.087474
      pz      :     0.022984  p :     0.276064
      px      :     0.235891
      py      :     0.017189
      dz2     :     0.001739  d :     0.005135
      dxz     :     0.001861
      dyz     :     0.000297
      dx2y2   :     0.000867
      dxy     :     0.000370
  1 C s       :    -0.000763  s :    -0.000763
      pz      :     0.003366  p :    -0.007524
      px      :    -0.009198
      py      :    -0.001692
      dz2     :    -0.000469  d :     0.001370
      dxz     :     0.000735
      dyz     :     0.001684
      dx2y2   :    -0.000216
      dxy     :    -0.000365
  2 F s       :     0.000031  s :     0.000031
      pz      :    -0.000428  p :    -0.003955
      px      :    -0.001772
      py      :    -0.001755
      dz2     :    -0.000007  d :    -0.000016
      dxz     :    -0.000023
      dyz     :    -0.000008
      dx2y2   :    -0.000006
      dxy     :     0.000028
  3 O s       :    -0.006262  s :    -0.006262
      pz      :     0.199960  p :     0.564372
      px      :     0.130575
      py      :     0.233838
      dz2     :     0.000544  d :     0.000740
      dxz     :     0.000408
      dyz     :     0.000017
      dx2y2   :     0.000463
      dxy     :    -0.000691
  4 H s       :     0.030849  s :     0.030849
  5 H s       :     0.064352  s :     0.064352
  6 H s       :    -0.013975  s :    -0.013975
  7 H s       :     0.002109  s :     0.002109


                     *******************************
                     * LOEWDIN POPULATION ANALYSIS *
                     *******************************

-----------------------------------------
LOEWDIN ATOMIC CHARGES AND SPIN DENSITIES
-----------------------------------------
   0 C :   -0.376329    0.328034
   1 C :    0.112094    0.009833
   2 F :   -0.172326   -0.004194
   3 O :   -0.320243    0.596845
   4 H :    0.318319    0.025684
   5 H :    0.137341    0.049349
   6 H :    0.163865   -0.006756
   7 H :    0.137277    0.001205

--------------------------------------------------
LOEWDIN REDUCED ORBITAL CHARGES AND SPIN DENSITIES
--------------------------------------------------
CHARGE
  0 C s       :     3.024118  s :     3.024118
      pz      :     1.109027  p :     3.248405
      px      :     1.042741
      py      :     1.096637
      dz2     :     0.028100  d :     0.103805
      dxz     :     0.016230
      dyz     :     0.011615
      dx2y2   :     0.021913
      dxy     :     0.025948
  1 C s       :     2.892932  s :     2.892932
      pz      :     0.988256  p :     2.743467
      px      :     0.848695
      py      :     0.906516
      dz2     :     0.035989  d :     0.251506
      dxz     :     0.055502
      dyz     :     0.072740
      dx2y2   :     0.034873
      dxy     :     0.052401
  2 F s       :     3.759412  s :     3.759412
      pz      :     1.877618  p :     5.360711
      px      :     1.740674
      py      :     1.742419
      dz2     :     0.008037  d :     0.052203
      dxz     :     0.009388
      dyz     :     0.010399
      dx2y2   :     0.010016
      dxy     :     0.014363
  3 O s       :     3.662303  s :     3.662303
      pz      :     1.353120  p :     4.576784
      px      :     1.659826
      py      :     1.563839
      dz2     :     0.012914  d :     0.081155
      dxz     :     0.014465
      dyz     :     0.022084
      dx2y2   :     0.010501
      dxy     :     0.021191
  4 H s       :     0.681681  s :     0.681681
  5 H s       :     0.862659  s :     0.862659
  6 H s       :     0.836135  s :     0.836135
  7 H s       :     0.862723  s :     0.862723

SPIN
  0 C s       :     0.066419  s :     0.066419
      pz      :     0.029601  p :     0.247418
      px      :     0.199318
      py      :     0.018499
      dz2     :     0.005299  d :     0.014197
      dxz     :     0.002774
      dyz     :     0.000422
      dx2y2   :     0.001022
      dxy     :     0.004681
  1 C s       :     0.000478  s :     0.000478
      pz      :     0.003370  p :     0.002784
      px      :    -0.001863
      py      :     0.001276
      dz2     :    -0.000146  d :     0.006572
      dxz     :     0.002887
      dyz     :     0.004573
      dx2y2   :    -0.000195
      dxy     :    -0.000547
  2 F s       :    -0.000364  s :    -0.000364
      pz      :    -0.000536  p :    -0.003776
      px      :    -0.001595
      py      :    -0.001645
      dz2     :    -0.000003  d :    -0.000054
      dxz     :    -0.000042
      dyz     :     0.000010
      dx2y2   :    -0.000069
      dxy     :     0.000050
  3 O s       :     0.027465  s :     0.027465
      pz      :     0.205497  p :     0.563711
      px      :     0.124919
      py      :     0.233295
      dz2     :     0.000869  d :     0.005670
      dxz     :     0.000943
      dyz     :     0.001439
      dx2y2   :     0.000534
      dxy     :     0.001885
  4 H s       :     0.025684  s :     0.025684
  5 H s       :     0.049349  s :     0.049349
  6 H s       :    -0.006756  s :    -0.006756
  7 H s       :     0.001205  s :     0.001205


                      *****************************
                      * MAYER POPULATION ANALYSIS *
                      *****************************

  NA   - Mulliken gross atomic population
  ZA   - Total nuclear charge
  QA   - Mulliken gross atomic charge
  VA   - Mayer's total valence
  BVA  - Mayer's bonded valence
  FA   - Mayer's free valence

  ATOM       NA         ZA         QA         VA         BVA        FA
  0 C      6.5675     6.0000    -0.5675     3.8417     3.4484     0.3934
  1 C      5.4843     6.0000     0.5157     3.7065     3.4590     0.2474
  2 F      9.3754     9.0000    -0.3754     1.1828     0.8699     0.3129
  3 O      8.5163     8.0000    -0.5163     2.1140     1.4825     0.6315
  4 H      0.6381     1.0000     0.3619     0.8598     0.8304     0.0294
  5 H      0.8292     1.0000     0.1708     0.9283     0.8868     0.0415
  6 H      0.7766     1.0000     0.2234     0.9284     0.8926     0.0358
  7 H      0.8126     1.0000     0.1874     0.9183     0.8830     0.0353

  Mayer bond orders larger than 0.100000
B(  0-C ,  1-C ) :   0.9016 B(  0-C ,  3-O ) :   0.2597 B(  0-C ,  4-H ) :   0.5245 
B(  0-C ,  5-H ) :   0.8776 B(  0-C ,  6-H ) :   0.8946 B(  1-C ,  2-F ) :   0.8295 
B(  1-C ,  3-O ) :   0.8704 B(  1-C ,  7-H ) :   0.8776 B(  3-O ,  4-H ) :   0.2994 



----------------------------------
MP2 DERIVATIVE INTEGRAL GENERATION
----------------------------------


Input Wavefunction Amplitudes       ... input.mp2tbb.tmp
Input Correlated Electron Density   ... input.pmp2re
Input Energy Weighted Density       ... input.wmp2.tmp
Input SCF Electron Density          ... input.scfp

One-Electron Terms    ...
                        ... One-Electron Terms done
Prescreening matrices              ... done

Batch handling in the gradient evaluation:
Memory available                      ...  256.0 MB
Memory per occupied orbital in Q2     ...    1.0 MB
Memory per occupied orbital in Q3     ...    0.0 MB
Total memory requirement per |i>      ...    1.0 MB
Max. Number of orbitals possible      ...    245
Number of orbitals treated per batch  ...     33
Number of batches to be done          ...      1
Batch   0: i=    0 ...    32

---------------------------------------
MP2 TOTAL ENERGY:     -252.780477923 Eh
---------------------------------------

The final MP2 gradient
  0:  -0.03757012   0.05539139  -0.00211017
  1:  -0.04488774  -0.02821409   0.05460992
  2:   0.00445025   0.00450321  -0.02447013
  3:   0.08352475  -0.03892954  -0.04982844
  4:  -0.03777651   0.01237527   0.00208383
  5:   0.00761076   0.01320138   0.01552823
  6:   0.00698827  -0.00558293   0.00837725
  7:   0.01766034  -0.01274468  -0.00419049

-----------------------------------
NORM OF THE MP2 GRADIENT:  0.156815
-----------------------------------

Maximum memory used throughout the entire MP2-calculation: 111.3 MB

-------------------------   --------------------
FINAL SINGLE POINT ENERGY      -252.780477923150
-------------------------   --------------------

------------------------------------------------------------------------------
                         ORCA GEOMETRY RELAXATION STEP
------------------------------------------------------------------------------

Reading the OPT-File                    .... done
Getting information on internals        .... done
Copying old internal coords+grads       .... done
Making the new internal coordinates     .... (new redundants).... done
Validating the new internal coordinates .... (new redundants).... done
Calculating the B-matrix                .... done
Calculating the G,G- and P matrices     .... done
Transforming gradient to internals      .... done
Projecting the internal gradient        .... done
Number of atoms                         ....   8
Number of internal coordinates          ....  55
Current Energy                          ....  -252.780477923 Eh
Current gradient norm                   ....     0.156814973 Eh/bohr
Maximum allowed component of the step   ....  0.300
Current trust radius                    ....  0.300
Evaluating the initial hessian          ....  (Almloef) done
Projecting the Hessian                  .... done
Diagonalizing the Hessian               .... done
Dimension of the hessian                ....  55
Lowest eigenvalues of the Hessian:
  0.024212090  0.044122944  0.065480773  0.091075940  0.093503706
Hessian has   0 negative eigenvalues
Taking P-RFO step
Searching for lambda that maximizes along the lowest mode
TS mode is mode number   0 with eigenvalue   0.02421209 and components:
   1.   -0.00612183
   2.    0.00000000
   3.    0.00101916
   4.    0.04418927
   5.   -0.00622205
   6.   -0.02048371
   7.    0.00000000
   8.    0.00000000
   9.    0.00000000
  10.    0.03294800
  11.   -0.07722963
  12.   -0.06747906
  13.   -0.04879759
  14.    0.07383249
  15.   -0.01437492
  16.   -0.00871564
  17.   -0.00957857
  18.    0.08974018
  19.    0.03809481
  20.    0.02231917
  21.    0.01292805
  22.   -0.00686991
  23.   -0.00113334
  24.   -0.01758949
  25.   -0.00282048
  26.   -0.01360353
  27.    0.07467408
  28.   -0.02207501
  29.    0.03644993
  30.    0.17062978
  31.    0.15136017
  32.    0.22285032
  33.    0.23585021
  34.    0.02519055
  35.    0.15843911
  36.    0.01219067
  37.    0.21065965
  38.    0.16436006
  39.    0.18362966
  40.    0.13916950
  41.    0.14024585
  42.    0.17176566
  43.   -0.32568550
  44.    0.32568550
  45.   -0.24102395
  46.   -0.21764294
  47.   -0.22438390
  48.   -0.01664005
  49.    0.00674096
  50.   -0.18543964
  51.   -0.15391984
  52.    0.24614758
  53.   -0.20601835
  54.   -0.14173550
  55.   -0.23087537

Lambda that maximizes along the TS mode:       0.02801664
Searching for lambda that minimizes along all other modes
In cycle   1: lambdaN =  -0.03229856   step =   0.03229856
In cycle   2: lambdaN =  -0.03423502   step =   0.00193646
In cycle   3: lambdaN =  -0.03423890   step =   0.00000388
In cycle   4: lambdaN =  -0.03423890   step =   0.00000000
Lambda that minimizes along all other modes:  -0.03423890
Calculated stepsize too large (   1.5461 >    0.3000). Scaled with    0.1940.
The final length of the internal step   ....       0.3000
Converting the step to cartesian space:
 Initial RMS(Int)=    0.0404519917
Transforming coordinates:
 Iter   0:  RMS(Cart)=    0.0354426712 RMS(Int)=    0.0387824886
 Iter   1:  RMS(Cart)=    0.0010446967 RMS(Int)=    0.0009819389
 Iter   2:  RMS(Cart)=    0.0000488897 RMS(Int)=    0.0000634547
 Iter   3:  RMS(Cart)=    0.0000032983 RMS(Int)=    0.0000035654
 Iter   4:  RMS(Cart)=    0.0000001763 RMS(Int)=    0.0000002122
 Iter   5:  RMS(Cart)=    0.0000000113 RMS(Int)=    0.0000000138
done
Storing new coordinates                 .... done

                                .--------------------.
          ----------------------|Geometry convergence|-------------------------
          Item                value                   Tolerance       Converged
          ---------------------------------------------------------------------
          RMS gradient        0.0112123065            0.0000080000      NO
          MAX gradient        0.0416293803            0.0000300000      NO
          RMS step            0.0404519917            0.0001000000      NO
          MAX step            0.0582119012            0.0002000000      NO
          ........................................................
          Max(Bonds)      0.0137      Max(Angles)    3.25
          Max(Dihed)        3.34      Max(Improp)    0.00
          ---------------------------------------------------------------------

The optimization has not yet converged - more geometry cycles are needed


    ---------------------------------------------------------------------------
                         Redundant Internal Coordinates
                            (Angstroem and degrees)

        Definition                    Value    dE/dq     Step     New-Value  comp.(TS mode)
    ----------------------------------------------------------------------------
     1. B(C   1,C   0)                1.4900 -0.009512  0.0053    1.4953   
     2. B(F   2,C   1)                1.3820 -0.003561  0.0006    1.3826   
     3. B(O   3,C   1)                1.4040  0.004891 -0.0005    1.4035   
     4. B(O   3,C   0)                1.8091 -0.041629  0.0071    1.8162   
     5. B(H   4,O   3)                1.2530 -0.023655  0.0137    1.2667   
     6. B(H   4,C   0)                1.3250  0.010116  0.0026    1.3276   
     7. B(H   5,C   0)                1.0860 -0.011224  0.0029    1.0889   
     8. B(H   6,C   0)                1.0860  0.001082 -0.0003    1.0857   
     9. B(H   7,C   1)                1.0917  0.001726 -0.0005    1.0912   
    10. A(H   4,C   0,H   5)          117.36  0.002511   -1.33    116.03   
    11. A(O   3,C   0,H   5)          141.28  0.002642    2.24    143.52   
    12. A(H   4,C   0,H   6)          119.55  0.000912    1.72    121.27   
    13. A(C   1,C   0,H   6)          108.88 -0.002064    1.67    110.55   
    14. A(C   1,C   0,H   4)           87.98  0.011031   -2.68     85.30   
    15. A(O   3,C   0,H   4)           43.83  0.001810    0.38     44.21   
    16. A(C   1,C   0,O   3)           49.21  0.011562   -0.23     48.98   
    17. A(H   5,C   0,H   6)          110.01 -0.001346    0.56    110.58   
    18. A(O   3,C   0,H   6)          108.12 -0.002140   -2.77    105.35   
    19. A(C   1,C   0,H   5)          110.37 -0.011486   -0.43    109.94   
    20. A(C   0,C   1,O   3)           77.32 -0.017978    0.20     77.52   
    21. A(O   3,C   1,H   7)          130.07  0.014804   -1.52    128.55   
    22. A(F   2,C   1,H   7)          112.29  0.008620   -0.28    112.01   
    23. A(C   0,C   1,F   2)          108.11 -0.017451    0.99    109.10   
    24. A(F   2,C   1,O   3)          105.93 -0.005634    0.97    106.89   
    25. A(C   0,C   1,H   7)          117.52  0.004566    0.18    117.70   
    26. A(C   0,O   3,C   1)           53.47  0.006416    0.03     53.50   
    27. A(C   1,O   3,H   4)           94.81  0.019718   -3.25     91.57   
    28. A(C   0,O   3,H   4)           47.08  0.017116   -0.12     46.96   
    29. A(C   0,H   4,O   3)           89.09 -0.018927   -0.26     88.83   
    30. D(F   2,C   1,C   0,H   6)     -4.86  0.009800   -3.34     -8.19   
    31. D(F   2,C   1,C   0,H   5)    116.00 -0.000300   -3.34    112.66   
    32. D(F   2,C   1,C   0,H   4)   -125.48  0.005004   -3.34   -128.82   
    33. D(H   7,C   1,C   0,H   4)    106.17  0.005261   -3.34    102.83   
    34. D(H   7,C   1,C   0,O   3)    128.81  0.008632   -1.60    127.20   
    35. D(O   3,C   1,C   0,H   6)     97.99  0.001426   -3.34     94.65   
    36. D(F   2,C   1,C   0,O   3)   -102.85  0.008374   -0.93   -103.78   
    37. D(O   3,C   1,C   0,H   4)    -22.64 -0.003370   -3.34    -25.97   
    38. D(H   7,C   1,C   0,H   5)    -12.35 -0.000042   -3.34    -15.68   
    39. D(H   7,C   1,C   0,H   6)   -133.20  0.010057   -3.34   -136.54   
[...]
AutoCI program output          ... >input.lastautoci

	<< Calculating on displaced geometry   1 (of  48) >>
	<< Calculating on displaced geometry   2 (of  48) >>
	<< Calculating on displaced geometry   3 (of  48) >>
	<< Calculating on displaced geometry   4 (of  48) >>
	<< Calculating on displaced geometry   5 (of  48) >>
	<< Calculating on displaced geometry   6 (of  48) >>
	<< Calculating on displaced geometry   7 (of  48) >>
	<< Calculating on displaced geometry   8 (of  48) >>
	<< Calculating on displaced geometry   9 (of  48) >>
	<< Calculating on displaced geometry  10 (of  48) >>
	<< Calculating on displaced geometry  11 (of  48) >>
	<< Calculating on displaced geometry  12 (of  48) >>
	<< Calculating on displaced geometry  13 (of  48) >>
	<< Calculating on displaced geometry  14 (of  48) >>
	<< Calculating on displaced geometry  15 (of  48) >>
	<< Calculating on displaced geometry  16 (of  48) >>
	<< Calculating on displaced geometry  17 (of  48) >>
	<< Calculating on displaced geometry  18 (of  48) >>
	<< Calculating on displaced geometry  19 (of  48) >>
	<< Calculating on displaced geometry  20 (of  48) >>
	<< Calculating on displaced geometry  21 (of  48) >>
	<< Calculating on displaced geometry  22 (of  48) >>
	<< Calculating on displaced geometry  23 (of  48) >>
	<< Calculating on displaced geometry  24 (of  48) >>
	<< Calculating on displaced geometry  25 (of  48) >>
	<< Calculating on displaced geometry  26 (of  48) >>
	<< Calculating on displaced geometry  27 (of  48) >>
	<< Calculating on displaced geometry  28 (of  48) >>
	<< Calculating on displaced geometry  29 (of  48) >>
	<< Calculating on displaced geometry  30 (of  48) >>
	<< Calculating on displaced geometry  31 (of  48) >>
	<< Calculating on displaced geometry  32 (of  48) >>
	<< Calculating on displaced geometry  33 (of  48) >>
	<< Calculating on displaced geometry  34 (of  48) >>
	<< Calculating on displaced geometry  35 (of  48) >>
	<< Calculating on displaced geometry  36 (of  48) >>
	<< Calculating on displaced geometry  37 (of  48) >>
	<< Calculating on displaced geometry  38 (of  48) >>
	<< Calculating on displaced geometry  39 (of  48) >>
	<< Calculating on displaced geometry  40 (of  48) >>
	<< Calculating on displaced geometry  41 (of  48) >>
	<< Calculating on displaced geometry  42 (of  48) >>
	<< Calculating on displaced geometry  43 (of  48) >>
	<< Calculating on displaced geometry  44 (of  48) >>
	<< Calculating on displaced geometry  45 (of  48) >>
	<< Calculating on displaced geometry  46 (of  48) >>
	<< Calculating on displaced geometry  47 (of  48) >>
	<< Calculating on displaced geometry  48 (of  48) >>

-----------------------
VIBRATIONAL FREQUENCIES
-----------------------

Scaling factor for frequencies =  1.000000000 (already applied!)

   0:         0.00 cm**-1
   1:         0.00 cm**-1
   2:         0.00 cm**-1
   3:         0.00 cm**-1
   4:         0.00 cm**-1
   5:         0.00 cm**-1
   6:     -2436.68 cm**-1 ***imaginary mode***
   7:       390.38 cm**-1
   8:       435.13 cm**-1
   9:       532.06 cm**-1
  10:       786.24 cm**-1
  11:       918.74 cm**-1
  12:      1015.77 cm**-1
  13:      1054.57 cm**-1
  14:      1135.84 cm**-1
  15:      1182.63 cm**-1
  16:      1201.03 cm**-1
  17:      1323.87 cm**-1
  18:      1437.78 cm**-1
  19:      1471.33 cm**-1
  20:      2092.33 cm**-1
  21:      3194.42 cm**-1
  22:      3208.82 cm**-1
  23:      3334.06 cm**-1


------------
NORMAL MODES
------------

These modes are the cartesian displacements weighted by the diagonal matrix
M(i,i)=1/sqrt(m[i]) where m[i] is the mass of the displaced atom
Thus, these vectors are normalized but *not* orthogonal

                  0          1          2          3          4          5    
      0       0.000000   0.000000   0.000000   0.000000   0.000000   0.000000
      1       0.000000   0.000000   0.000000   0.000000   0.000000   0.000000
      2       0.000000   0.000000   0.000000   0.000000   0.000000   0.000000
      3       0.000000   0.000000   0.000000   0.000000   0.000000   0.000000
      4       0.000000   0.000000   0.000000   0.000000   0.000000   0.000000
      5       0.000000   0.000000   0.000000   0.000000   0.000000   0.000000
      6       0.000000   0.000000   0.000000   0.000000   0.000000   0.000000
      7       0.000000   0.000000   0.000000   0.000000   0.000000   0.000000
      8       0.000000   0.000000   0.000000   0.000000   0.000000   0.000000
      9       0.000000   0.000000   0.000000   0.000000   0.000000   0.000000
     10       0.000000   0.000000   0.000000   0.000000   0.000000   0.000000
     11       0.000000   0.000000   0.000000   0.000000   0.000000   0.000000
     12       0.000000   0.000000   0.000000   0.000000   0.000000   0.000000
     13       0.000000   0.000000   0.000000   0.000000   0.000000   0.000000
     14       0.000000   0.000000   0.000000   0.000000   0.000000   0.000000
     15       0.000000   0.000000   0.000000   0.000000   0.000000   0.000000
     16       0.000000   0.000000   0.000000   0.000000   0.000000   0.000000
     17       0.000000   0.000000   0.000000   0.000000   0.000000   0.000000
     18       0.000000   0.000000   0.000000   0.000000   0.000000   0.000000
     19       0.000000   0.000000   0.000000   0.000000   0.000000   0.000000
     20       0.000000   0.000000   0.000000   0.000000   0.000000   0.000000
     21       0.000000   0.000000   0.000000   0.000000   0.000000   0.000000
     22       0.000000   0.000000   0.000000   0.000000   0.000000   0.000000
     23       0.000000   0.000000   0.000000   0.000000   0.000000   0.000000
                  6          7          8          9         10         11    
      0      -0.047693   0.048907   0.048037   0.088643   0.231991  -0.095226
      1       0.027855   0.076938   0.092648  -0.051388  -0.054930   0.208981
      2      -0.031192   0.061270   0.121265   0.047221   0.025448   0.123428
      3      -0.007686  -0.059384  -0.118998  -0.024743   0.040667   0.128336
      4       0.005930  -0.037640   0.035005  -0.201415   0.091855   0.036150
      5       0.009712   0.038056   0.024511   0.041222  -0.175285   0.041824
      6      -0.000034   0.022797   0.132587  -0.201007  -0.026956  -0.070631
      7      -0.000181  -0.015274  -0.093555  -0.036799  -0.064020  -0.115157
      8       0.000015  -0.091554  -0.060710  -0.230257  -0.008606  -0.083306
      9      -0.009575  -0.032163  -0.112383   0.162503  -0.210389   0.075920
     10       0.006615  -0.040951  -0.012486   0.226740   0.102225  -0.024131
     11       0.038444   0.018963  -0.063027   0.191957   0.116386  -0.052285
     12       0.747630   0.301421  -0.109960  -0.006171  -0.015800  -0.141273
     13      -0.466456   0.482481  -0.247673  -0.070463  -0.122147  -0.126391
     14      -0.458120   0.012913   0.009146   0.141379   0.047230  -0.005952
     15       0.035391  -0.390554   0.617754   0.608280   0.017551  -0.320396
     16      -0.004973   0.199624   0.027747  -0.066173  -0.133667   0.105797
     17       0.045103  -0.273382   0.140396  -0.148839   0.477139   0.753501
     18       0.024592   0.365468  -0.186558  -0.142947   0.422995  -0.016240
     19      -0.026118  -0.228391   0.556711   0.454634  -0.490384  -0.174494
     20       0.055635   0.426367   0.202701   0.198350  -0.128967  -0.213766
     21       0.004871  -0.070671  -0.190834  -0.011396   0.173677   0.209576
     22      -0.006605   0.015876   0.103587  -0.210949  -0.109709  -0.172414
     23       0.002865   0.075118   0.055302   0.048215  -0.295077  -0.102922
                 12         13         14         15         16         17    
      0      -0.123647  -0.046561  -0.053603   0.028288  -0.023170   0.010876
      1       0.001227   0.027655  -0.071636   0.065525  -0.009582  -0.034001
      2      -0.028242  -0.116603   0.115496   0.065757   0.094096  -0.060618
      3       0.114696  -0.168250   0.024739  -0.218532   0.018498  -0.116374
      4      -0.110884   0.140207   0.074428  -0.209189   0.050940   0.103374
      5      -0.029178  -0.120761  -0.122846  -0.102331  -0.118932   0.109663
      6       0.018542  -0.004976  -0.009120   0.090638  -0.006340  -0.003447
      7       0.047981  -0.024263  -0.015950   0.122336  -0.004973  -0.028893
      8       0.024688   0.001654   0.003988   0.032168   0.010968  -0.009705
      9      -0.062229   0.164748   0.011194   0.049400   0.030988   0.013641
     10       0.036647  -0.103031  -0.033854   0.008855  -0.007168   0.008070
     11      -0.043815   0.123366   0.024070   0.007965   0.016376  -0.034133
     12      -0.064223  -0.220301   0.436129  -0.041346  -0.277411   0.013315
     13       0.193822   0.116020   0.634587  -0.088513  -0.508581   0.056836
     14      -0.035045  -0.051767  -0.056841  -0.049076  -0.025600   0.027457
     15       0.388674   0.272175   0.086945  -0.252039  -0.306714   0.129239
     16      -0.126731  -0.144364  -0.052741   0.031041   0.144463  -0.060980
     17       0.294212   0.499991   0.020878   0.382573  -0.447538  -0.047673
     18       0.206312   0.277179  -0.368536  -0.071415   0.006506   0.076674
     19      -0.061062  -0.138732   0.323986  -0.033431   0.153228  -0.062381
     20       0.720951   0.453841  -0.103979  -0.297854   0.449199   0.039496
     21       0.214145  -0.290534   0.183606   0.139343   0.260953   0.886302
     22      -0.185364   0.259470  -0.101150  -0.643482  -0.074413  -0.343639
     23      -0.065803  -0.062952  -0.229678  -0.332527  -0.146750   0.120976
                 18         19         20         21         22         23    
      0       0.035038   0.065608   0.033743   0.007093  -0.044804  -0.052349
      1       0.004856  -0.059579  -0.019357  -0.008449   0.025257  -0.086093
      2      -0.018118  -0.096078   0.023672  -0.006188   0.034301   0.004681
      3      -0.019864   0.021916   0.009435   0.023814   0.006644  -0.001369
      4      -0.078075   0.038936  -0.001576   0.050845   0.010534  -0.002065
      5      -0.079507   0.079649   0.035392  -0.062042  -0.018241   0.002158
      6      -0.006791   0.000512  -0.001077   0.000273   0.000110   0.000131
      7      -0.010212   0.001781  -0.000888   0.000194   0.000047   0.000345
      8       0.018148  -0.010786  -0.001466   0.000572   0.000052   0.000152
      9      -0.005677  -0.016463  -0.004015  -0.000615   0.000561   0.000081
     10       0.016900   0.001188   0.003832  -0.000621  -0.000527   0.000370
     11      -0.004366  -0.005350   0.014190   0.000075  -0.000471   0.000028
     12       0.043432   0.044919  -0.386710   0.007439   0.000143  -0.003149
     13       0.030867  -0.014333   0.204387   0.000678   0.000361  -0.006221
     14      -0.021318   0.058014  -0.894708   0.006547   0.014031  -0.000445
     15      -0.286655  -0.518443  -0.030618   0.023894  -0.081616   0.078627
     16      -0.014886  -0.084278  -0.011773   0.177463  -0.629841   0.716695
     17       0.280650   0.344988  -0.011627   0.032730  -0.135451   0.152984
     18      -0.090449  -0.121344  -0.006589  -0.127136   0.589056   0.550908
     19       0.260030   0.543874   0.034471  -0.075232   0.350750   0.310618
     20       0.054221   0.321496  -0.025407   0.054059  -0.229224  -0.213518
     21       0.370960  -0.196396  -0.006540  -0.267869  -0.063848   0.009955
     22       0.520670  -0.251694  -0.021741  -0.601876  -0.140258   0.017012
     23       0.576972  -0.240534   0.030355   0.707706   0.165773  -0.023804


-----------
IR SPECTRUM
-----------

 Mode   freq       eps      Int      T**2         TX        TY        TZ
       cm**-1   L/(mol*cm) km/mol    a.u.
----------------------------------------------------------------------------
  7:    390.38   0.000696    3.52  0.000556  (-0.000991  0.014441  0.018621)
  8:    435.13   0.000460    2.32  0.000330  (-0.005566  0.007592  0.015528)
  9:    532.06   0.000859    4.34  0.000504  ( 0.006360 -0.018779  0.010529)
 10:    786.24   0.003457   17.47  0.001372  ( 0.036430 -0.006345 -0.002167)
 11:    918.74   0.006600   33.35  0.002242  ( 0.014150  0.026274  0.036757)
 12:   1015.77   0.006140   31.03  0.001886  ( 0.014504 -0.016010  0.037679)
 13:   1054.57   0.004976   25.15  0.001473  (-0.032210  0.014275 -0.015210)
 14:   1135.84   0.009452   47.77  0.002597  ( 0.019009  0.036170 -0.030452)
 15:   1182.63   0.027397  138.45  0.007229  (-0.041185 -0.054989 -0.050093)
 16:   1201.03   0.006201   31.34  0.001611  (-0.011397 -0.019744 -0.033036)
 17:   1323.87   0.002208   11.16  0.000520  ( 0.005449  0.013228  0.017770)
 18:   1437.78   0.003677   18.58  0.000798  (-0.009102 -0.013044 -0.023349)
 19:   1471.33   0.006948   35.11  0.001474  ( 0.006253  0.014230  0.035102)
 20:   2092.33   0.004814   24.33  0.000718  (-0.008928  0.006016 -0.024537)
 21:   3194.42   0.007195   36.36  0.000703  ( 0.007143  0.015635 -0.020185)
 22:   3208.82   0.000771    3.90  0.000075  ( 0.005356  0.003856 -0.005606)
 23:   3334.06   0.000072    0.36  0.000007  ( 0.001720 -0.001651 -0.001033)

* The epsilon (eps) is given for a Dirac delta lineshape.
** The dipole moment derivative (T) already includes vibrational overlap.

The first frequency considered to be a vibration is 7
The total number of vibrations considered is 17


--------------------------
THERMOCHEMISTRY AT 298.15K
--------------------------

Temperature         ... 298.15 K
Pressure            ... 1.00 atm
Total Mass          ... 63.05 AMU

Throughout the following assumptions are being made:
  (1) The electronic state is orbitally nondegenerate
      but the spin degeneracy is treated
  (2) There are no thermally accessible electronically excited states
  (3) Hindered rotations indicated by low frequency modes are not
      treated as such but are treated as vibrations and this may
      cause some error
  (4) All equations used are the standard statistical mechanics
      equations for an ideal gas
  (5) All vibrations are strictly harmonic

freq.     390.38  E(vib)   ...       0.20 
freq.     435.13  E(vib)   ...       0.17 
freq.     532.06  E(vib)   ...       0.13 
freq.     786.24  E(vib)   ...       0.05 
freq.     918.74  E(vib)   ...       0.03 
freq.    1015.77  E(vib)   ...       0.02 
freq.    1054.57  E(vib)   ...       0.02 
freq.    1135.84  E(vib)   ...       0.01 
freq.    1182.63  E(vib)   ...       0.01 
freq.    1201.03  E(vib)   ...       0.01 
freq.    1323.87  E(vib)   ...       0.01 
freq.    1437.78  E(vib)   ...       0.00 
freq.    1471.33  E(vib)   ...       0.00 
freq.    2092.33  E(vib)   ...       0.00 
freq.    3194.42  E(vib)   ...       0.00 
freq.    3208.82  E(vib)   ...       0.00 
freq.    3334.06  E(vib)   ...       0.00 

------------
INNER ENERGY
------------

The inner energy is: U= E(el) + E(ZPE) + E(vib) + E(rot) + E(trans)
    E(el)   - is the total energy from the electronic structure calculation
              = E(kin-el) + E(nuc-el) + E(el-el) + E(nuc-nuc)
    E(ZPE)  - the the zero temperature vibrational energy from the frequency calculation
    E(vib)  - the the finite temperature correction to E(ZPE) due to population
              of excited vibrational states
    E(rot)  - is the rotational thermal energy
    E(trans)- is the translational thermal energy

Summary of contributions to the inner energy U:
Electronic energy                ...   -252.82916096 Eh
Zero point energy                ...      0.05630490 Eh      35.33 kcal/mol
Thermal vibrational correction   ...      0.00107306 Eh       0.67 kcal/mol
Thermal rotational correction    ...      0.00141627 Eh       0.89 kcal/mol
Thermal translational correction ...      0.00141627 Eh       0.89 kcal/mol
-----------------------------------------------------------------------
Total thermal energy                   -252.76895045 Eh


Summary of corrections to the electronic energy:
(perhaps to be used in another calculation)
Total thermal correction                  0.00390561 Eh       2.45 kcal/mol
Non-thermal (ZPE) correction              0.05630490 Eh      35.33 kcal/mol
-----------------------------------------------------------------------
Total correction                          0.06021051 Eh      37.78 kcal/mol


--------
ENTHALPY
--------

The enthalpy is H = U + kB*T
                kB is Boltzmann's constant
Total free energy                 ...   -252.76895045 Eh 
Thermal Enthalpy correction       ...      0.00094421 Eh       0.59 kcal/mol
-----------------------------------------------------------------------
Total Enthalpy                    ...   -252.76800624 Eh


Note: Only C1 symmetry has been detected, increase convergence thresholds 
      if your molecule has a higher symmetry. Symmetry factor of 1.0 is   
      used for the rotational entropy correction. 
 

Note: Rotational entropy computed according to Herzberg 
Infrared and Raman Spectra, Chapter V,1, Van Nostrand Reinhold, 1945 
Point Group:  C1, Symmetry Number:   1  
Rotational constants in cm-1:     0.412888     0.268943     0.188089 

Vibrational entropy computed according to the QRRHO of S. Grimme
Chem.Eur.J. 2012 18 9955


-------
ENTROPY
-------

The entropy contributions are T*S = T*(S(el)+S(vib)+S(rot)+S(trans))
     S(el)   - electronic entropy
     S(vib)  - vibrational entropy
     S(rot)  - rotational entropy
     S(trans)- translational entropy
The entropies will be listed as multiplied by the temperature to get
units of energy

Electronic entropy                ...      0.00065446 Eh      0.41 kcal/mol
Vibrational entropy               ...      0.00148870 Eh      0.93 kcal/mol
Rotational entropy                ...      0.01133718 Eh      7.11 kcal/mol
Translational entropy             ...      0.01821802 Eh     11.43 kcal/mol
-----------------------------------------------------------------------
Final entropy term                ...      0.03169835 Eh     19.89 kcal/mol

In case the symmetry of your molecule has not been determined correctly
or in case you have a reason to use a different symmetry number we print 
out the resulting rotational entropy values for sn=1,12 :
 --------------------------------------------------------
|  sn= 1 | S(rot)=       0.01133718 Eh      7.11 kcal/mol|
|  sn= 2 | S(rot)=       0.01068272 Eh      6.70 kcal/mol|
|  sn= 3 | S(rot)=       0.01029989 Eh      6.46 kcal/mol|
|  sn= 4 | S(rot)=       0.01002826 Eh      6.29 kcal/mol|
|  sn= 5 | S(rot)=       0.00981757 Eh      6.16 kcal/mol|
|  sn= 6 | S(rot)=       0.00964543 Eh      6.05 kcal/mol|
|  sn= 7 | S(rot)=       0.00949988 Eh      5.96 kcal/mol|
|  sn= 8 | S(rot)=       0.00937381 Eh      5.88 kcal/mol|
|  sn= 9 | S(rot)=       0.00926260 Eh      5.81 kcal/mol|
|  sn=10 | S(rot)=       0.00916312 Eh      5.75 kcal/mol|
|  sn=11 | S(rot)=       0.00907313 Eh      5.69 kcal/mol|
|  sn=12 | S(rot)=       0.00899097 Eh      5.64 kcal/mol|
 --------------------------------------------------------


-------------------
GIBBS FREE ENERGY
-------------------

The Gibbs free energy is G = H - T*S

Total enthalpy                    ...   -252.76800624 Eh 
Total entropy correction          ...     -0.03169835 Eh    -19.89 kcal/mol
-----------------------------------------------------------------------
Final Gibbs free energy         ...   -252.79970459 Eh

For completeness - the Gibbs free energy minus the electronic energy
G-E(el)                           ...      0.02945637 Eh     18.48 kcal/mol



Timings for individual modules:

Sum of individual times         ...     1912.376 sec (=  31.873 min)
GTO integral calculation        ...       18.972 sec (=   0.316 min)   1.0 %
SCF iterations                  ...      425.894 sec (=   7.098 min)  22.3 %
MP2 module                      ...      442.943 sec (=   7.382 min)  23.2 %
Geometry relaxation             ...        4.952 sec (=   0.083 min)   0.3 %
Numerical frequency calculation ...     1019.614 sec (=  16.994 min)  53.3 %
                             ****ORCA TERMINATED NORMALLY****
TOTAL RUN TIME: 0 days 0 hours 31 minutes 51 seconds 731 msec
