
                                 *****************
                                 * O   R   C   A *
                                 *****************

                                            #,                                       
                                            ###                                      
                                            ####                                     
                                            #####                                    
                                            ######                                   
                                           ########,                                 
                                     ,,################,,,,,                         
                               ,,#################################,,                 
                          ,,##########################################,,             
                       ,#########################################, ''#####,          
                    ,#############################################,,   '####,        
                  ,##################################################,,,,####,       
                ,###########''''           ''''###############################       
              ,#####''   ,,,,##########,,,,          '''####'''          '####       
            ,##' ,,,,###########################,,,                        '##       
           ' ,,###''''                  '''############,,,                           
         ,,##''                                '''############,,,,        ,,,,,,###''
      ,#''                                            '''#######################'''  
     '                                                          ''''####''''         
             ,#######,   #######,   ,#######,      ##                                
            ,#'     '#,  ##    ##  ,#'     '#,    #''#        ######   ,####,        
            ##       ##  ##   ,#'  ##            #'  '#       #        #'  '#        
            ##       ##  #######   ##           ,######,      #####,   #    #        
            '#,     ,#'  ##    ##  '#,     ,#' ,#      #,         ##   #,  ,#        
             '#######'   ##     ##  '#######'  #'      '#     #####' # '####'        



                  #######################################################
                  #                        -***-                        #
                  #          Department of theory and spectroscopy      #
                  #    Directorship and core code : Frank Neese         #
                  #        Max Planck Institute fuer Kohlenforschung    #
                  #                Kaiser Wilhelm Platz 1               #
                  #                 D-45470 Muelheim/Ruhr               #
                  #                      Germany                        #
                  #                                                     #
                  #                  All rights reserved                #
                  #                        -***-                        #
                  #######################################################


                         Program Version 5.0.1 -  RELEASE  -


 With contributions from (in alphabetic order):
   Daniel Aravena         : Magnetic Suceptibility
   Michael Atanasov       : Ab Initio Ligand Field Theory (pilot matlab implementation)
   Alexander A. Auer      : GIAO ZORA, VPT2 properties, NMR spectrum
   Ute Becker             : Parallelization
   Giovanni Bistoni       : ED, misc. LED, open-shell LED, HFLD
   Martin Brehm           : Molecular dynamics
   Dmytro Bykov           : SCF Hessian
   Vijay G. Chilkuri      : MRCI spin determinant printing, contributions to CSF-ICE
   Dipayan Datta          : RHF DLPNO-CCSD density
   Achintya Kumar Dutta   : EOM-CC, STEOM-CC
   Dmitry Ganyushin       : Spin-Orbit,Spin-Spin,Magnetic field MRCI
   Miquel Garcia          : C-PCM and meta-GGA Hessian, CC/C-PCM, Gaussian charge scheme
   Yang Guo               : DLPNO-NEVPT2, F12-NEVPT2, CIM, IAO-localization
   Andreas Hansen         : Spin unrestricted coupled pair/coupled cluster methods
   Benjamin Helmich-Paris : MC-RPA, TRAH-SCF, COSX integrals
   Lee Huntington         : MR-EOM, pCC
   Robert Izsak           : Overlap fitted RIJCOSX, COSX-SCS-MP3, EOM
   Marcus Kettner         : VPT2
   Christian Kollmar      : KDIIS, OOCD, Brueckner-CCSD(T), CCSD density, CASPT2, CASPT2-K
   Simone Kossmann        : Meta GGA functionals, TD-DFT gradient, OOMP2, MP2 Hessian
   Martin Krupicka        : Initial AUTO-CI
   Lucas Lang             : DCDCAS
   Marvin Lechner         : AUTO-CI (C++ implementation), FIC-MRCC
   Dagmar Lenk            : GEPOL surface, SMD
   Dimitrios Liakos       : Extrapolation schemes; Compound Job, initial MDCI parallelization
   Dimitrios Manganas     : Further ROCIS development; embedding schemes
   Dimitrios Pantazis     : SARC Basis sets
   Anastasios Papadopoulos: AUTO-CI, single reference methods and gradients
   Taras Petrenko         : DFT Hessian,TD-DFT gradient, ASA, ECA, R-Raman, ABS, FL, XAS/XES, NRVS
   Peter Pinski           : DLPNO-MP2, DLPNO-MP2 Gradient
   Christoph Reimann      : Effective Core Potentials
   Marius Retegan         : Local ZFS, SOC
   Christoph Riplinger    : Optimizer, TS searches, QM/MM, DLPNO-CCSD(T), (RO)-DLPNO pert. Triples
   Tobias Risthaus        : Range-separated hybrids, TD-DFT gradient, RPA, STAB
   Michael Roemelt        : Original ROCIS implementation
   Masaaki Saitow         : Open-shell DLPNO-CCSD energy and density
   Barbara Sandhoefer     : DKH picture change effects
   Avijit Sen             : IP-ROCIS
   Kantharuban Sivalingam : CASSCF convergence, NEVPT2, FIC-MRCI
   Bernardo de Souza      : ESD, SOC TD-DFT
   Georgi Stoychev        : AutoAux, RI-MP2 NMR, DLPNO-MP2 response
   Willem Van den Heuvel  : Paramagnetic NMR
   Boris Wezisla          : Elementary symmetry handling
   Frank Wennmohs         : Technical directorship


 We gratefully acknowledge several colleagues who have allowed us to
 interface, adapt or use parts of their codes:
   Stefan Grimme, W. Hujo, H. Kruse, P. Pracht,  : VdW corrections, initial TS optimization,
                  C. Bannwarth, S. Ehlert          DFT functionals, gCP, sTDA/sTD-DF
   Ed Valeev, F. Pavosevic, A. Kumar             : LibInt (2-el integral package), F12 methods
   Garnet Chan, S. Sharma, J. Yang, R. Olivares  : DMRG
   Ulf Ekstrom                                   : XCFun DFT Library
   Mihaly Kallay                                 : mrcc  (arbitrary order and MRCC methods)
   Jiri Pittner, Ondrej Demel                    : Mk-CCSD
   Frank Weinhold                                : gennbo (NPA and NBO analysis)
   Christopher J. Cramer and Donald G. Truhlar   : smd solvation model
   Lars Goerigk                                  : TD-DFT with DH, B97 family of functionals
   V. Asgeirsson, H. Jonsson                     : NEB implementation
   FAccTs GmbH                                   : IRC, NEB, NEB-TS, DLPNO-Multilevel, CI-OPT
                                                   MM, QMMM, 2- and 3-layer-ONIOM, Crystal-QMMM,
                                                   LR-CPCM, SF, NACMEs, symmetry and pop. for TD-DFT,
                                                   nearIR, NL-DFT gradient (VV10), updates on ESD,
                                                   ML-optimized integration grids
   S Lehtola, MJT Oliveira, MAL Marques          : LibXC Library
   Liviu Ungur et al                             : ANISO software


 Your calculation uses the libint2 library for the computation of 2-el integrals
 For citations please refer to: http://libint.valeyev.net

 Your ORCA version has been built with support for libXC version: 5.1.0
 For citations please refer to: https://tddft.org/programs/libxc/

 This ORCA versions uses:
   CBLAS   interface :  Fast vector & matrix operations
   LAPACKE interface :  Fast linear algebra routines
   SCALAPACK package :  Parallel linear algebra routines
   Shared memory     :  Shared parallel matrices
   BLAS/LAPACK       :  OpenBLAS 0.3.15  USE64BITINT DYNAMIC_ARCH NO_AFFINITY Zen SINGLE_THREADED
        Core in use  :  Zen
   Copyright (c) 2011-2014, The OpenBLAS Project




***************************************
The coordinates will be read from file: input.xyz
***************************************


================================================================================

----- Orbital basis set information -----
Your calculation utilizes the basis: 6-31G(d)
   H-He, Li-Ne : W. J. Hehre, R. Ditchfield and J.A. Pople, J. Chem. Phys. 56, 2257 (1972).
                 Note: He and Ne are unpublished basis sets taken from the Gaussian program.
                 Note: Li and B from J. D. Dill and J. A. Pople, J. Chem. Phys. 62, 2921 (1975).
   Na - Ar     : M. M. Francl, W. J. Pietro, W. J. Hehre, J. S. Binkley, M. S. Gordon, 
                 D. J. DeFrees and J. A. Pople, J. Chem. Phys. 77, 3654 (1982).
   K - Zn      : V. A. Rassolov, J. A. Pople, M. A. Ratner, and T. L. Windus, J. Chem. Phys. 109, 1223 (1998).

================================================================================
                                        WARNINGS
                       Please study these warnings very carefully!
================================================================================


WARNING: Geometry Optimization
  ===> : Switching off AutoStart
         For restart on a previous wavefunction, please use MOREAD

WARNING: Post HF methods need fully converged wavefunctions
  ===> : Setting SCFConvForced true
         You can overwrite this default with %scf ConvForced false 


INFO   : the flag for use of the SHARK integral package has been found!

================================================================================
                                       INPUT FILE
================================================================================
NAME = input.orc
|  1> ! MP2 UHF 6-31G(d) OPTTS NumFreq NoFrozenCore VERYTIGHTSCF VERYTIGHTOPT
|  2> %geom
|  3> MaxIter 200
|  4> end
|  5> 
|  6> * XYZfile 0 2 input.xyz
|  7> 
|  8>                          ****END OF INPUT****
================================================================================

                       *****************************
                       * Geometry Optimization Run *
                       *****************************

Geometry optimization settings:
Update method            Update   .... Bofill
Choice of coordinates    CoordSys .... Z-matrix Internals
Initial Hessian          InHess   .... Almoef's Model

Convergence Tolerances:
Energy Change            TolE     ....  2.0000e-07 Eh
Max. Gradient            TolMAXG  ....  3.0000e-05 Eh/bohr
RMS Gradient             TolRMSG  ....  8.0000e-06 Eh/bohr
Max. Displacement        TolMAXD  ....  2.0000e-04 bohr
RMS Displacement         TolRMSD  ....  1.0000e-04 bohr
Strict Convergence                ....  False
------------------------------------------------------------------------------
                        ORCA OPTIMIZATION COORDINATE SETUP
------------------------------------------------------------------------------

The optimization will be done in new redundant internal coordinates
Making redundant internal coordinates   ...  (new redundants) done
Following TS mode number                ...     0
Evaluating the initial hessian          ...  (Almloef) done
Evaluating the coordinates              ...  done
Calculating the B-matrix                .... done
Calculating the G-matrix                .... done
Diagonalizing the G-matrix              .... done
The first mode is                       ....   37
The number of degrees of freedom        ....   18

    -----------------------------------------------------------------
                    Redundant Internal Coordinates


    -----------------------------------------------------------------
         Definition                    Initial Value    Approx d2E/dq
    -----------------------------------------------------------------
      1. B(H   1,C   0)                  1.3252         0.151754   
      2. B(C   2,C   0)                  1.4960         0.423275   
      3. B(F   3,C   2)                  1.3760         0.547398   
      4. B(O   4,C   2)                  1.3990         0.541398   
      5. B(O   4,H   1)                  1.2790         0.161073   
      6. B(O   4,C   0)                  1.7179         0.167750   
      7. B(H   5,C   0)                  1.0860         0.365431   
      8. B(F   6,C   0)                  1.3760         0.547398   
      9. B(H   7,C   2)                  1.2291         0.216045   
     10. A(C   2,C   0,H   5)          107.9178         0.331873   
     11. A(O   4,C   0,H   5)          150.1506         0.284349   
     12. A(H   5,C   0,F   6)           91.6412         0.342884   
     13. A(C   2,C   0,F   6)          122.6956         0.392473   
     14. A(H   1,C   0,O   4)           47.5763         0.249113   
     15. A(H   1,C   0,F   6)          118.1497         0.297090   
     16. A(H   1,C   0,C   2)           92.3371         0.288064   
     17. A(C   2,C   0,O   4)           51.0375         0.322505   
     18. A(O   4,C   0,F   6)          117.1696         0.333091   
     19. A(H   1,C   0,H   5)          126.7255         0.255537   
     20. A(C   0,H   1,O   4)           82.5298         0.225739   
     21. A(C   0,C   2,O   4)           72.7124         0.393417   
     22. A(F   3,C   2,H   7)           99.6959         0.314409   
     23. A(O   4,C   2,H   7)          138.5435         0.315110   
     24. A(C   0,C   2,H   7)          102.0291         0.304633   
     25. A(F   3,C   2,O   4)          120.5157         0.407218   
     26. A(C   0,C   2,F   3)          113.0693         0.392473   
     27. A(C   0,O   4,H   1)           49.8940         0.249396   
     28. A(H   1,O   4,C   2)           99.0496         0.298106   
     29. A(C   0,O   4,C   2)           56.2500         0.333851   
     30. D(O   4,H   1,C   0,F   6)   -102.2738         0.018389   
     31. D(O   4,H   1,C   0,C   2)     27.1453         0.018389   
     32. D(O   4,H   1,C   0,H   5)    141.6400         0.018389   
     33. D(O   4,C   2,C   0,H   5)   -155.6218         0.015051   
     34. D(H   7,C   2,C   0,O   4)    137.4105         0.015051   
     35. D(H   7,C   2,C   0,F   6)   -122.2933         0.015051   
     36. D(F   3,C   2,C   0,O   4)   -116.4534         0.015051   
     37. D(H   7,C   2,C   0,H   5)    -18.2113         0.015051   
     38. D(O   4,C   2,C   0,F   6)    100.2963         0.015051   
     39. D(H   7,C   2,C   0,H   1)    111.7435         0.015051   
     40. D(F   3,C   2,C   0,H   1)   -142.1203         0.015051   
     41. D(O   4,C   2,C   0,H   1)    -25.6670         0.015051   
     42. D(F   3,C   2,C   0,H   5)     87.9249         0.015051   
     43. D(F   3,C   2,C   0,F   6)    -16.1571         0.015051   
     44. D(H   1,O   4,C   0,C   2)   -144.1064         0.003529   
     45. D(H   1,O   4,C   2,H   7)    -61.6980         0.025328   
     46. D(H   1,O   4,C   2,F   3)    134.0382         0.025328   
     47. D(H   1,O   4,C   2,C   0)     27.0053         0.025328   
     48. D(C   0,O   4,C   2,F   3)    107.0330         0.025328   
     49. D(C   2,O   4,H   1,C   0)    -29.5788         0.021107   
     50. D(C   2,O   4,C   0,F   6)   -111.4566         0.003529   
     51. D(C   0,O   4,C   2,H   7)    -88.7032         0.025328   
     52. D(C   2,O   4,C   0,H   5)     52.0989         0.003529   
     53. D(C   2,O   4,C   0,H   1)    144.1064         0.003529   
     54. D(H   1,O   4,C   0,F   6)    104.4371         0.003529   
     55. D(H   1,O   4,C   0,H   5)    -92.0074         0.003529   
    -----------------------------------------------------------------

Number of atoms                         .... 8
Number of degrees of freedom            .... 55

         *************************************************************
         *                GEOMETRY OPTIMIZATION CYCLE   1            *
         *************************************************************
---------------------------------
CARTESIAN COORDINATES (ANGSTROEM)
---------------------------------
  C      0.849004    0.043867    0.270031
  H      2.121811    0.303138    0.007433
  C      0.374669    0.987699   -0.789310
  F     -0.754380    1.684454   -0.424406
  O      1.640410    1.422372   -0.381682
  H      0.336377   -0.902914    0.127851
  F      0.427104    0.121164    1.577472
  H     -0.113731    0.220421   -1.615971

----------------------------
CARTESIAN COORDINATES (A.U.)
----------------------------
  NO LB      ZA    FRAG     MASS         X           Y           Z
   0 C     6.0000    0    12.011    1.604384    0.082897    0.510285
   1 H     1.0000    0     1.008    4.009641    0.572849    0.014045
   2 C     6.0000    0    12.011    0.708022    1.866480   -1.491580
   3 F     9.0000    0    18.998   -1.425572    3.183157   -0.802011
   4 O     8.0000    0    15.999    3.099925    2.687894   -0.721274
   5 H     1.0000    0     1.008    0.635661   -1.706261    0.241604
   6 F     9.0000    0    18.998    0.807110    0.228967    2.980990
   7 H     1.0000    0     1.008   -0.214920    0.416536   -3.053742

--------------------------------
INTERNAL COORDINATES (ANGSTROEM)
--------------------------------
 C      0   0   0     0.000000000000     0.00000000     0.00000000
 H      1   0   0     1.325223517078     0.00000000     0.00000000
 C      1   2   0     1.495999999390    92.33712155     0.00000000
 F      3   1   2     1.375999999948   113.06926831   217.87965420
 O      2   1   3     1.279000000637    82.52975381    27.14527209
 H      1   2   3     1.086000000201   126.72552518   114.49477217
 F      1   2   3     1.375999999697   118.14966842   230.58096555
 H      3   1   2     1.229071478045   102.02912677   111.74346999

---------------------------
INTERNAL COORDINATES (A.U.)
---------------------------
 C      0   0   0     0.000000000000     0.00000000     0.00000000
 H      1   0   0     2.504309513510     0.00000000     0.00000000
 C      1   2   0     2.827030295193    92.33712155     0.00000000
 F      3   1   2     2.600263160178   113.06926831   217.87965420
 O      2   1   3     2.416959726489    82.52975381    27.14527209
 H      1   2   3     2.052242581818   126.72552518   114.49477217
 F      1   2   3     2.600263159703   118.14966842   230.58096555
 H      3   1   2     2.322608492519   102.02912677   111.74346999

---------------------
BASIS SET INFORMATION
---------------------
There are 4 groups of distinct atoms

 Group   1 Type C   : 10s4p1d contracted to 3s2p1d pattern {631/31/1}
 Group   2 Type H   : 4s contracted to 2s pattern {31}
 Group   3 Type F   : 10s4p1d contracted to 3s2p1d pattern {631/31/1}
 Group   4 Type O   : 10s4p1d contracted to 3s2p1d pattern {631/31/1}

Atom   0C    basis set group =>   1
Atom   1H    basis set group =>   2
Atom   2C    basis set group =>   1
Atom   3F    basis set group =>   3
Atom   4O    basis set group =>   4
Atom   5H    basis set group =>   2
Atom   6F    basis set group =>   3
Atom   7H    basis set group =>   2
------------------------------------------------------------------------------
                           ORCA GTO INTEGRAL CALCULATION
------------------------------------------------------------------------------
------------------------------------------------------------------------------
                   ___                                                        
                  /   \      - P O W E R E D   B Y -                         
                 /     \                                                     
                 |  |  |   _    _      __       _____    __    __             
                 |  |  |  | |  | |    /  \     |  _  \  |  |  /  |          
                  \  \/   | |  | |   /    \    | | | |  |  | /  /          
                 / \  \   | |__| |  /  /\  \   | |_| |  |  |/  /          
                |  |  |   |  __  | /  /__\  \  |    /   |      \           
                |  |  |   | |  | | |   __   |  |    \   |  |\   \          
                \     /   | |  | | |  |  |  |  | |\  \  |  | \   \       
                 \___/    |_|  |_| |__|  |__|  |_| \__\ |__|  \__/        
                                                                              
                      - O R C A' S   B I G   F R I E N D -                    
                                      &                                       
                       - I N T E G R A L  F E E D E R -                       
                                                                              
 v1 FN, 2020, v2 2021                                                         
------------------------------------------------------------------------------


Reading SHARK input file input.SHARKINP.tmp ... ok
----------------------
SHARK INTEGRAL PACKAGE
----------------------

Number of atoms                             ...      8
Number of basis functions                   ...     76
Number of shells                            ...     36
Maximum angular momentum                    ...      2
Integral batch strategy                     ... SHARK/LIBINT Hybrid
RI-J (if used) integral strategy            ... SPLIT-RIJ (Revised 2003 algorithm where possible)
Printlevel                                  ...      1
Contraction scheme used                     ... SEGMENTED contraction
Coulomb Range Separation                    ... NOT USED
Exchange Range Separation                   ... NOT USED
Finite Nucleus Model                        ... NOT USED
Auxiliary Coulomb fitting basis             ... NOT available
Auxiliary J/K fitting basis                 ... NOT available
Auxiliary Correlation fitting basis         ... NOT available
Auxiliary 'external' fitting basis          ... NOT available
Integral threshold                          ...     1.000000e-12
Primitive cut-off                           ...     1.000000e-14
Primitive pair pre-selection threshold      ...     1.000000e-14

Calculating pre-screening integrals         ... done (  0.0 sec) Dimension = 36
Organizing shell pair data                  ... done (  0.1 sec)
Shell pair information
Total number of shell pairs                 ...       666
Shell pairs after pre-screening             ...       659
Total number of primitive shell pairs       ...      3942
Primitive shell pairs kept                  ...      2945
          la=0 lb=0:    224 shell pairs
          la=1 lb=0:    210 shell pairs
          la=1 lb=1:     55 shell pairs
          la=2 lb=0:    105 shell pairs
          la=2 lb=1:     50 shell pairs
          la=2 lb=2:     15 shell pairs

Calculating one electron integrals          ... done (  0.0 sec)
Calculating Nuclear repulsion               ... done (  0.1 sec) ENN=    187.458977411714 Eh

SHARK setup successfully completed in   0.6 seconds

Maximum memory used throughout the entire GTOINT-calculation: 7.5 MB
-------------------------------------------------------------------------------
                                 ORCA SCF
-------------------------------------------------------------------------------

------------
SCF SETTINGS
------------
Hamiltonian:
 Ab initio Hamiltonian  Method          .... Hartree-Fock(GTOs)


General Settings:
 Integral files         IntName         .... input
 Hartree-Fock type      HFTyp           .... UHF
 Total Charge           Charge          ....    0
 Multiplicity           Mult            ....    2
 Number of Electrons    NEL             ....   41
 Basis Dimension        Dim             ....   76
 Nuclear Repulsion      ENuc            ....    187.4589774117 Eh

Convergence Acceleration:
 DIIS                   CNVDIIS         .... on
   Start iteration      DIISMaxIt       ....    12
   Startup error        DIISStart       ....  0.200000
   # of expansion vecs  DIISMaxEq       ....     5
   Bias factor          DIISBfac        ....   1.050
   Max. coefficient     DIISMaxC        ....  10.000
 Trust-Rad. Augm. Hess. CNVTRAH         .... auto
   Auto Start mean grad. ratio tolernc. ....  1.125000
   Auto Start start iteration           ....    20
   Auto Start num. interpolation iter.  ....    10
   Max. Number of Micro iterations      ....    16
   Max. Number of Macro iterations      .... Maxiter - #DIIS iter
   Number of Davidson start vectors     ....     2
   Converg. threshold I  (grad. norm)   ....   2.000e-06
   Converg. threshold II (energy diff.) ....   1.000e-09
   Grad. Scal. Fac. for Micro threshold ....   0.100
   Minimum threshold for Micro iter.    ....   0.010
   NR start threshold (gradient norm)   ....   0.001
   Initial trust radius                 ....   0.400
   Minimum AH scaling param. (alpha)    ....   1.000
   Maximum AH scaling param. (alpha)    .... 1000.000
   Orbital update algorithm             .... Taylor
   White noise on init. David. guess    .... on
   Maximum white noise                  ....   0.010
   Quad. conv. algorithm                .... NR
 SOSCF                  CNVSOSCF        .... off
 Level Shifting         CNVShift        .... on
   Level shift para.    LevelShift      ....    0.2500
   Turn off err/grad.   ShiftErr        ....    0.0010
 Zerner damping         CNVZerner       .... off
 Static damping         CNVDamp         .... on
   Fraction old density DampFac         ....    0.7000
   Max. Damping (<1)    DampMax         ....    0.9800
   Min. Damping (>=0)   DampMin         ....    0.0000
   Turn off err/grad.   DampErr         ....    0.1000
 Fernandez-Rico         CNVRico         .... off

SCF Procedure:
 Maximum # iterations   MaxIter         ....   125
 SCF integral mode      SCFMode         .... Direct
   Integral package                     .... SHARK and LIBINT hybrid scheme
 Reset frequency        DirectResetFreq ....    20
 Integral Threshold     Thresh          ....  1.000e-12 Eh
 Primitive CutOff       TCut            ....  1.000e-14 Eh

Convergence Tolerance:
 Convergence Check Mode ConvCheckMode   .... Total+1el-Energy
 Convergence forced     ConvForced      .... 1
 Energy Change          TolE            ....  1.000e-09 Eh
 1-El. energy change                    ....  1.000e-06 Eh
 DIIS Error             TolErr          ....  1.000e-08


Diagonalization of the overlap matrix:
Smallest eigenvalue                        ... 4.580e-03
Time for diagonalization                   ...    0.001 sec
Threshold for overlap eigenvalues          ... 1.000e-08
Number of eigenvalues below threshold      ... 0
Time for construction of square roots      ...    0.058 sec
Total time needed                          ...    0.059 sec

Time for model grid setup =    0.115 sec

------------------------------
INITIAL GUESS: MODEL POTENTIAL
------------------------------
Loading Hartree-Fock densities                     ... done
Calculating cut-offs                               ... done
Initializing the effective Hamiltonian             ... done
Setting up the integral package (SHARK)            ... done
Starting the Coulomb interaction                   ... done (   0.3 sec)
Reading the grid                                   ... done
Mapping shells                                     ... done
Starting the XC term evaluation                    ... done (   0.0 sec)
Transforming the Hamiltonian                       ... done (   0.0 sec)
Diagonalizing the Hamiltonian                      ... done (   0.0 sec)
Back transforming the eigenvectors                 ... done (   0.0 sec)
Now organizing SCF variables                       ... done
                      ------------------
                      INITIAL GUESS DONE (   0.5 sec)
                      ------------------
--------------
SCF ITERATIONS
--------------
ITER       Energy         Delta-E        Max-DP      RMS-DP      [F,P]     Damp
               ***  Starting incremental Fock matrix formation  ***
  0   -350.8178669753   0.000000000000 0.02195653  0.00101627  0.1528195 0.7000
  1   -350.8488827341  -0.031015758743 0.01749892  0.00076734  0.0895738 0.7000
                               ***Turning on DIIS***
  2   -350.8695527806  -0.020670046506 0.04143406  0.00179565  0.0531837 0.0000
  3   -350.8611653437   0.008387436841 0.02119574  0.00078259  0.0314004 0.0000
  4   -350.9957206762  -0.134555332487 0.00972263  0.00033164  0.0130256 0.0000
  5   -350.9196248308   0.076095845367 0.00707421  0.00029732  0.0072857 0.0000
  6   -350.9306746005  -0.011049769616 0.00637684  0.00024965  0.0052141 0.0000
  7   -350.9293657457   0.001308854799 0.00357024  0.00015342  0.0024935 0.0000
  8   -350.9270006399   0.002365105719 0.00155615  0.00007820  0.0010376 0.0000
  9   -350.9280149042  -0.001014264279 0.00086675  0.00005559  0.0004236 0.0000
 10   -350.9271559064   0.000858997849 0.00039500  0.00001699  0.0001062 0.0000
 11   -350.9270360652   0.000119841223 0.00022158  0.00000857  0.0000811 0.0000
 12   -350.9271366809  -0.000100615730 0.00022053  0.00000886  0.0000596 0.0000
 13   -350.9270645399   0.000072140945 0.00009952  0.00000463  0.0000310 0.0000
 14   -350.9271086716  -0.000044131650 0.00006043  0.00000295  0.0000181 0.0000
 15   -350.9271310848  -0.000022413174 0.00004256  0.00000180  0.0000121 0.0000
 16   -350.9271185911   0.000012493648 0.00002993  0.00000128  0.0000078 0.0000
 17   -350.9271325490  -0.000013957849 0.00001551  0.00000069  0.0000040 0.0000
 18   -350.9271297476   0.000002801369 0.00000790  0.00000035  0.0000017 0.0000
 19   -350.9271308172  -0.000001069595 0.00000315  0.00000013  0.0000007 0.0000
               *** Restarting incremental Fock matrix formation ***
                                   *** Resetting DIIS ***
 20   -350.9271310200  -0.000000202843 0.00000103  0.00000005  0.0000003 0.0000
 21   -350.9271310059   0.000000014084 0.00000086  0.00000004  0.0000003 0.0000
 22   -350.9271308881   0.000000117841 0.00000156  0.00000007  0.0000002 0.0000
 23   -350.9271308951  -0.000000007022 0.00000090  0.00000004  0.0000001 0.0000
 24   -350.9271310200  -0.000000124884 0.00000080  0.00000003  0.0000001 0.0000
                 **** Energy Check signals convergence ****

               *****************************************************
               *                     SUCCESS                       *
               *           SCF CONVERGED AFTER  25 CYCLES          *
               *****************************************************


----------------
TOTAL SCF ENERGY
----------------

Total Energy       :         -350.92713102 Eh           -9549.21271 eV

Components:
Nuclear Repulsion  :          187.45897741 Eh            5101.01811 eV
Electronic Energy  :         -538.38610843 Eh          -14650.23081 eV
One Electron Energy:         -858.32301218 Eh          -23356.15657 eV
Two Electron Energy:          319.93690374 Eh            8705.92575 eV

Virial components:
Potential Energy   :         -701.85039911 Eh          -19098.32030 eV
Kinetic Energy     :          350.92326809 Eh            9549.10759 eV
Virial Ratio       :            2.00001101


---------------
SCF CONVERGENCE
---------------

  Last Energy change         ...    7.5227e-10  Tolerance :   1.0000e-09
  Last MAX-Density change    ...    2.3404e-07  Tolerance :   1.0000e-08
  Last RMS-Density change    ...    9.4583e-09  Tolerance :   1.0000e-09
  Last DIIS Error            ...    2.5275e-08  Tolerance :   1.0000e-08

             **** THE GBW FILE WAS UPDATED (input.gbw) ****
             **** DENSITY input.scfp WAS UPDATED ****
             **** ENERGY FILE WAS UPDATED (input.en.tmp) ****
----------------------
UHF SPIN CONTAMINATION
----------------------

Expectation value of <S**2>     :     0.772065
Ideal value S*(S+1) for S=0.5   :     0.750000
Deviation                       :     0.022065

             **** THE GBW FILE WAS UPDATED (input.gbw) ****
             **** DENSITY input.scfp WAS UPDATED ****
----------------
ORBITAL ENERGIES
----------------
                 SPIN UP ORBITALS
  NO   OCC          E(Eh)            E(eV) 
   0   1.0000     -26.315300      -716.0757 
   1   1.0000     -26.288468      -715.3456 
   2   1.0000     -20.672783      -562.5350 
   3   1.0000     -11.409425      -310.4662 
   4   1.0000     -11.345415      -308.7244 
   5   1.0000      -1.629883       -44.3514 
   6   1.0000      -1.600135       -43.5419 
   7   1.0000      -1.498128       -40.7661 
   8   1.0000      -1.024056       -27.8660 
   9   1.0000      -0.898351       -24.4454 
  10   1.0000      -0.799313       -21.7504 
  11   1.0000      -0.768298       -20.9065 
  12   1.0000      -0.739070       -20.1111 
  13   1.0000      -0.713037       -19.4027 
  14   1.0000      -0.675905       -18.3923 
  15   1.0000      -0.652834       -17.7645 
  16   1.0000      -0.627177       -17.0664 
  17   1.0000      -0.604625       -16.4527 
  18   1.0000      -0.549174       -14.9438 
  19   1.0000      -0.454656       -12.3718 
  20   1.0000      -0.408476       -11.1152 
  21   0.0000       0.172720         4.7000 
  22   0.0000       0.202684         5.5153 
  23   0.0000       0.259667         7.0659 
  24   0.0000       0.316011         8.5991 
  25   0.0000       0.322058         8.7636 
  26   0.0000       0.426751        11.6125 
  27   0.0000       0.471015        12.8170 
  28   0.0000       0.691980        18.8297 
  29   0.0000       0.724770        19.7220 
  30   0.0000       0.784975        21.3602 
  31   0.0000       0.797367        21.6975 
  32   0.0000       0.820314        22.3219 
  33   0.0000       0.892216        24.2784 
  34   0.0000       0.934428        25.4271 
  35   0.0000       0.968595        26.3568 
  36   0.0000       0.997044        27.1309 
  37   0.0000       1.127169        30.6718 
  38   0.0000       1.186701        32.2918 
  39   0.0000       1.270512        34.5724 
  40   0.0000       1.329271        36.1713 
  41   0.0000       1.391355        37.8607 
  42   0.0000       1.483237        40.3609 
  43   0.0000       1.505588        40.9691 
  44   0.0000       1.566641        42.6305 
  45   0.0000       1.616407        43.9847 
  46   0.0000       1.655241        45.0414 
  47   0.0000       1.684976        45.8505 
  48   0.0000       1.699352        46.2417 
  49   0.0000       1.715229        46.6738 
  50   0.0000       1.813937        49.3597 
  51   0.0000       1.909231        51.9528 
  52   0.0000       1.944320        52.9076 
  53   0.0000       1.958588        53.2959 
  54   0.0000       1.990262        54.1578 
  55   0.0000       2.060794        56.0771 
  56   0.0000       2.113868        57.5213 
  57   0.0000       2.145213        58.3742 
  58   0.0000       2.160045        58.7778 
  59   0.0000       2.183570        59.4180 
  60   0.0000       2.231845        60.7316 
  61   0.0000       2.311318        62.8942 
  62   0.0000       2.377121        64.6848 
  63   0.0000       2.390978        65.0618 
  64   0.0000       2.500530        68.0429 
  65   0.0000       2.532342        68.9085 
  66   0.0000       2.575556        70.0845 
  67   0.0000       2.727176        74.2102 
  68   0.0000       2.752022        74.8863 
  69   0.0000       2.791188        75.9521 
  70   0.0000       2.982565        81.1597 
  71   0.0000       3.050277        83.0022 
  72   0.0000       3.115715        84.7829 
  73   0.0000       3.176650        86.4410 
  74   0.0000       3.421832        93.1128 
  75   0.0000       3.481490        94.7362 

                 SPIN DOWN ORBITALS
  NO   OCC          E(Eh)            E(eV) 
   0   1.0000     -26.315493      -716.0810 
   1   1.0000     -26.287671      -715.3239 
   2   1.0000     -20.634046      -561.4809 
   3   1.0000     -11.411226      -310.5152 
   4   1.0000     -11.333958      -308.4127 
   5   1.0000      -1.627822       -44.2953 
   6   1.0000      -1.597404       -43.4676 
   7   1.0000      -1.394767       -37.9535 
   8   1.0000      -0.982381       -26.7319 
   9   1.0000      -0.870987       -23.7008 
  10   1.0000      -0.759439       -20.6654 
  11   1.0000      -0.738348       -20.0915 
  12   1.0000      -0.719067       -19.5668 
  13   1.0000      -0.694380       -18.8950 
  14   1.0000      -0.664469       -18.0811 
  15   1.0000      -0.640233       -17.4216 
  16   1.0000      -0.597145       -16.2492 
  17   1.0000      -0.556991       -15.1565 
  18   1.0000      -0.523699       -14.2506 
  19   1.0000      -0.425169       -11.5694 
  20   0.0000       0.113417         3.0862 
  21   0.0000       0.185204         5.0397 
  22   0.0000       0.216259         5.8847 
  23   0.0000       0.279078         7.5941 
  24   0.0000       0.327341         8.9074 
  25   0.0000       0.340740         9.2720 
  26   0.0000       0.431487        11.7414 
  27   0.0000       0.489377        13.3166 
  28   0.0000       0.694574        18.9003 
  29   0.0000       0.738265        20.0892 
  30   0.0000       0.796182        21.6652 
  31   0.0000       0.809149        22.0181 
  32   0.0000       0.832979        22.6665 
  33   0.0000       0.912044        24.8180 
  34   0.0000       0.941182        25.6109 
  35   0.0000       0.980434        26.6790 
  36   0.0000       1.005339        27.3567 
  37   0.0000       1.153936        31.4002 
  38   0.0000       1.219325        33.1795 
  39   0.0000       1.291255        35.1368 
  40   0.0000       1.389984        37.8234 
  41   0.0000       1.417668        38.5767 
  42   0.0000       1.484752        40.4021 
  43   0.0000       1.515058        41.2268 
  44   0.0000       1.578484        42.9527 
  45   0.0000       1.621386        44.1202 
  46   0.0000       1.665486        45.3202 
  47   0.0000       1.688056        45.9343 
  48   0.0000       1.705449        46.4076 
  49   0.0000       1.717644        46.7395 
  50   0.0000       1.834778        49.9269 
  51   0.0000       1.934612        52.6435 
  52   0.0000       1.958872        53.3036 
  53   0.0000       1.971684        53.6522 
  54   0.0000       2.007772        54.6343 
  55   0.0000       2.072166        56.3865 
  56   0.0000       2.119468        57.6737 
  57   0.0000       2.152740        58.5790 
  58   0.0000       2.164683        58.9040 
  59   0.0000       2.192753        59.6678 
  60   0.0000       2.247821        61.1663 
  61   0.0000       2.334167        63.5159 
  62   0.0000       2.391251        65.0692 
  63   0.0000       2.405315        65.4519 
  64   0.0000       2.512432        68.3668 
  65   0.0000       2.546865        69.3037 
  66   0.0000       2.584733        70.3342 
  67   0.0000       2.735861        74.4466 
  68   0.0000       2.763089        75.1875 
  69   0.0000       2.799555        76.1798 
  70   0.0000       2.991348        81.3987 
  71   0.0000       3.060493        83.2803 
  72   0.0000       3.143943        85.5510 
  73   0.0000       3.187073        86.7247 
  74   0.0000       3.426731        93.2461 
  75   0.0000       3.484641        94.8219 

                    ********************************
                    * MULLIKEN POPULATION ANALYSIS *
                    ********************************

--------------------------------------------
MULLIKEN ATOMIC CHARGES AND SPIN POPULATIONS
--------------------------------------------
   0 C :    0.114181    0.274893
   1 H :    0.345049   -0.029063
   2 C :    0.577463   -0.060201
   3 F :   -0.422217   -0.000040
   4 O :   -0.531144    0.690043
   5 H :    0.148062    0.114335
   6 F :   -0.429092    0.000718
   7 H :    0.197697    0.009316
Sum of atomic charges         :   -0.0000000
Sum of atomic spin populations:    1.0000000

-----------------------------------------------------
MULLIKEN REDUCED ORBITAL CHARGES AND SPIN POPULATIONS
-----------------------------------------------------
CHARGE
  0 C s       :     3.252488  s :     3.252488
      pz      :     0.580383  p :     2.542943
      px      :     1.030150
      py      :     0.932410
      dz2     :     0.026411  d :     0.090387
      dxz     :     0.017952
      dyz     :     0.018733
      dx2y2   :     0.013083
      dxy     :     0.014208
  1 H s       :     0.654951  s :     0.654951
  2 C s       :     3.040898  s :     3.040898
      pz      :     0.945239  p :     2.269914
      px      :     0.531776
      py      :     0.792899
      dz2     :     0.013573  d :     0.111725
      dxz     :     0.021852
      dyz     :     0.022401
      dx2y2   :     0.024464
      dxy     :     0.029435
  3 F s       :     3.988412  s :     3.988412
      pz      :     1.920819  p :     5.415704
      px      :     1.640203
      py      :     1.854682
      dz2     :     0.002515  d :     0.018100
      dxz     :     0.003394
      dyz     :     0.001551
      dx2y2   :     0.004365
      dxy     :     0.006277
  4 O s       :     3.965709  s :     3.965709
      pz      :     1.662597  p :     4.529281
      px      :     1.468580
      py      :     1.398104
      dz2     :     0.003597  d :     0.036155
      dxz     :     0.006677
      dyz     :     0.005368
      dx2y2   :     0.011462
      dxy     :     0.009051
  5 H s       :     0.851938  s :     0.851938
  6 F s       :     3.982817  s :     3.982817
      pz      :     1.573754  p :     5.428716
      px      :     1.898525
      py      :     1.956437
      dz2     :     0.008711  d :     0.017560
      dxz     :     0.004712
      dyz     :     0.003411
      dx2y2   :     0.000456
      dxy     :     0.000270
  7 H s       :     0.802303  s :     0.802303

SPIN
  0 C s       :     0.099169  s :     0.099169
      pz      :     0.022387  p :     0.169265
      px      :     0.174072
      py      :    -0.027194
      dz2     :     0.000225  d :     0.006459
      dxz     :    -0.000910
      dyz     :    -0.000194
      dx2y2   :     0.003692
      dxy     :     0.003646
  1 H s       :    -0.029063  s :    -0.029063
  2 C s       :    -0.011240  s :    -0.011240
      pz      :    -0.002247  p :    -0.051970
      px      :    -0.028336
      py      :    -0.021387
      dz2     :    -0.000075  d :     0.003009
      dxz     :    -0.000267
      dyz     :     0.001701
      dx2y2   :     0.002089
      dxy     :    -0.000439
  3 F s       :     0.000103  s :     0.000103
      pz      :    -0.000581  p :    -0.000092
      px      :     0.000553
      py      :    -0.000063
      dz2     :    -0.000017  d :    -0.000051
      dxz     :     0.000018
      dyz     :     0.000002
      dx2y2   :    -0.000005
      dxy     :    -0.000050
  4 O s       :    -0.000899  s :    -0.000899
      pz      :     0.148937  p :     0.695763
      px      :     0.038466
      py      :     0.508360
      dz2     :    -0.000693  d :    -0.004822
      dxz     :    -0.000463
      dyz     :    -0.001143
      dx2y2   :    -0.002044
      dxy     :    -0.000479
  5 H s       :     0.114335  s :     0.114335
  6 F s       :    -0.000281  s :    -0.000281
      pz      :    -0.009594  p :     0.000859
      px      :     0.009086
      py      :     0.001366
      dz2     :     0.000097  d :     0.000140
      dxz     :    -0.000153
      dyz     :     0.000134
      dx2y2   :     0.000051
      dxy     :     0.000011
  7 H s       :     0.009316  s :     0.009316


                     *******************************
                     * LOEWDIN POPULATION ANALYSIS *
                     *******************************

-------------------------------------------
LOEWDIN ATOMIC CHARGES AND SPIN POPULATIONS
-------------------------------------------
   0 C :   -0.019931    0.246446
   1 H :    0.298999   -0.017900
   2 C :    0.157914   -0.031774
   3 F :   -0.192913   -0.002186
   4 O :   -0.290863    0.708923
   5 H :    0.117313    0.081694
   6 F :   -0.215865    0.009472
   7 H :    0.145347    0.005325

----------------------------------------------------
LOEWDIN REDUCED ORBITAL CHARGES AND SPIN POPULATIONS
----------------------------------------------------
CHARGE
  0 C s       :     2.968384  s :     2.968384
      pz      :     0.767363  p :     2.854629
      px      :     1.057515
      py      :     1.029752
      dz2     :     0.062784  d :     0.196918
      dxz     :     0.040061
      dyz     :     0.041141
      dx2y2   :     0.024231
      dxy     :     0.028699
  1 H s       :     0.701001  s :     0.701001
  2 C s       :     2.886647  s :     2.886647
      pz      :     1.052221  p :     2.712672
      px      :     0.758602
      py      :     0.901850
      dz2     :     0.029834  d :     0.242767
      dxz     :     0.045576
      dyz     :     0.042836
      dx2y2   :     0.059938
      dxy     :     0.064582
  3 F s       :     3.756950  s :     3.756950
      pz      :     1.918058  p :     5.402801
      px      :     1.636348
      py      :     1.848395
      dz2     :     0.004095  d :     0.033161
      dxz     :     0.007077
      dyz     :     0.003822
      dx2y2   :     0.006944
      dxy     :     0.011224
  4 O s       :     3.658131  s :     3.658131
      pz      :     1.656629  p :     4.563943
      px      :     1.485846
      py      :     1.421468
      dz2     :     0.007884  d :     0.068789
      dxz     :     0.011150
      dyz     :     0.010445
      dx2y2   :     0.018092
      dxy     :     0.021218
  5 H s       :     0.882687  s :     0.882687
  6 F s       :     3.755236  s :     3.755236
      pz      :     1.582596  p :     5.425878
      px      :     1.894147
      py      :     1.949135
      dz2     :     0.014463  d :     0.034751
      dxz     :     0.009759
      dyz     :     0.008810
      dx2y2   :     0.001209
      dxy     :     0.000508
  7 H s       :     0.854653  s :     0.854653

SPIN
  0 C s       :     0.075316  s :     0.075316
      pz      :     0.018614  p :     0.152341
      px      :     0.147435
      py      :    -0.013707
      dz2     :     0.000332  d :     0.018789
      dxz     :    -0.000742
      dyz     :    -0.000113
      dx2y2   :     0.006852
      dxy     :     0.012460
  1 H s       :    -0.017900  s :    -0.017900
  2 C s       :    -0.005824  s :    -0.005824
      pz      :    -0.003065  p :    -0.036313
      px      :    -0.019461
      py      :    -0.013787
      dz2     :     0.000281  d :     0.010362
      dxz     :     0.000311
      dyz     :     0.003501
      dx2y2   :     0.006316
      dxy     :    -0.000047
  3 F s       :    -0.000320  s :    -0.000320
      pz      :    -0.000669  p :    -0.001515
      px      :    -0.000028
      py      :    -0.000819
      dz2     :     0.000021  d :    -0.000350
      dxz     :    -0.000055
      dyz     :     0.000002
      dx2y2   :    -0.000270
      dxy     :    -0.000049
  4 O s       :     0.033508  s :     0.033508
      pz      :     0.143163  p :     0.675519
      px      :     0.029754
      py      :     0.502602
      dz2     :     0.000363  d :    -0.000104
      dxz     :    -0.000759
      dyz     :     0.000611
      dx2y2   :    -0.000499
      dxy     :     0.000180
  5 H s       :     0.081694  s :     0.081694
  6 F s       :     0.000715  s :     0.000715
      pz      :    -0.007492  p :     0.006720
      px      :     0.012217
      py      :     0.001995
      dz2     :     0.000227  d :     0.002038
      dxz     :     0.001029
      dyz     :     0.000449
      dx2y2   :     0.000371
      dxy     :    -0.000039
  7 H s       :     0.005325  s :     0.005325


                      *****************************
                      * MAYER POPULATION ANALYSIS *
                      *****************************

  NA   - Mulliken gross atomic population
  ZA   - Total nuclear charge
  QA   - Mulliken gross atomic charge
  VA   - Mayer's total valence
  BVA  - Mayer's bonded valence
  FA   - Mayer's free valence

  ATOM       NA         ZA         QA         VA         BVA        FA
  0 C      5.8858     6.0000     0.1142     3.5182     3.4117     0.1065
  1 H      0.6550     1.0000     0.3450     0.8632     0.8615     0.0017
  2 C      5.4225     6.0000     0.5775     3.4395     3.4347     0.0047
  3 F      9.4222     9.0000    -0.4222     0.8384     0.8384     0.0000
  4 O      8.5311     8.0000    -0.5311     1.8426     1.3695     0.4731
  5 H      0.8519     1.0000     0.1481     0.9351     0.9216     0.0135
  6 F      9.4291     9.0000    -0.4291     0.8136     0.8132     0.0005
  7 H      0.8023     1.0000     0.1977     0.9300     0.9299     0.0001

  Mayer bond orders larger than 0.100000
B(  0-C ,  1-H ) :   0.6431 B(  0-C ,  2-C ) :   0.8544 B(  0-C ,  4-O ) :   0.2109 
B(  0-C ,  5-H ) :   0.9239 B(  0-C ,  6-F ) :   0.7915 B(  1-H ,  4-O ) :   0.2020 
B(  2-C ,  3-F ) :   0.8005 B(  2-C ,  4-O ) :   0.8765 B(  2-C ,  7-H ) :   0.9179 


-------
TIMINGS
-------

Total SCF time: 0 days 0 hours 0 min 18 sec 

Total time                  ....      18.645 sec
Sum of individual times     ....      16.391 sec  ( 87.9%)

Fock matrix formation       ....      14.619 sec  ( 78.4%)
Diagonalization             ....       0.400 sec  (  2.1%)
Density matrix formation    ....       0.003 sec  (  0.0%)
Population analysis         ....       0.401 sec  (  2.2%)
Initial guess               ....       0.401 sec  (  2.2%)
Orbital Transformation      ....       0.000 sec  (  0.0%)
Orbital Orthonormalization  ....       0.000 sec  (  0.0%)
DIIS solution               ....       0.451 sec  (  2.4%)

Maximum memory used throughout the entire SCF-calculation: 230.5 MB

------------------------------------------------------------------------------
                                ORCA  MP2 
------------------------------------------------------------------------------

MP2 will be done in the AO integral direct mode
The Q1-step will be done using symmetric double matrices
Dimension of the basis                    ...   76
Memory devoted for MP2                    ...  256 MB   
Memory needed for all in one shot         ...   37 MB
Number of MOs that can be treated together...  149      
MP2 density construction                  ... relaxed
The MP2 gradient is requested => amplitudes will be stored on disk
Total number of MOs              ...   21
Number of MOs treated per batch  ...   21 
Number of batches necessary      ...    1 
OPERATORS   0/  0 PASS   0
OPERATORS   0/  1 PASS   0
Total number of MOs              ...   21
Number of MOs treated per batch  ...   20 
Number of batches necessary      ...    1 
OPERATORS   1/  0 PASS   0
OPERATORS   1/  1 PASS   0

Correlation energy components
 E2 and T2 for alpha/alpha pairs :     -0.109168394 Eh
 E2 and T2 for beta/beta   pairs :     -0.106328552 Eh
 E2 and T2 for alpha/beta  pairs :     -0.569444197 Eh

-----------------------------------------------
 MP2 CORRELATION ENERGY   :     -0.784941142 Eh
-----------------------------------------------


---------------------
MP2 DENSITY FORMATION
---------------------

Completing the external part of the density      ... done
Storing the unrelaxed density                    ... done

Calculating G(D)                                 ... done
Completing the Lagrangian                        ... done
Solving the Z-vector equations                   ... 

------------------------------------------------------------------------------
                           ORCA CP-SCF CALCULATION
------------------------------------------------------------------------------

Input orbitals are from        ... input.gbw
Input Perturbation             ... input.pin.tmp
Wavefunction output            ... input.pout.tmp
Perturbation mode              ... Real perturbation (singlet)
Solver                         ... POPLE
Max. number of iterations      ... 128
Convergence tolerance          ... 3.000e-05
Integral handling              ... Direct
Number of perturbations        ... 1
Number of operators            ... 2
Orbital ranges used for CP-SCF:
 Operator 0:  Orbitals   0... 20  to  21... 75
 Operator 1:  Orbitals   0... 19  to  20... 75
Variables per perturbation     ... 2275
Memory available               ... 1015.5 MB
Memory needed per perturbation ...   4.7 MB
Perturbations treated per batch... 1
Number of batches              ... 1
     CP-SCF ITERATION   0:   8.8765e-02 (   0.4 sec)
     CP-SCF ITERATION   1:   3.8454e-02 (   0.4 sec)
     CP-SCF ITERATION   2:   1.4337e-02 (   0.4 sec)
     CP-SCF ITERATION   3:   7.5710e-03 (   0.4 sec)
     CP-SCF ITERATION   4:   3.8871e-03 (   0.4 sec)
     CP-SCF ITERATION   5:   2.2532e-03 (   0.3 sec)
     CP-SCF ITERATION   6:   1.1788e-03 (   0.3 sec)
     CP-SCF ITERATION   7:   6.6627e-04 (   0.3 sec)
     CP-SCF ITERATION   8:   3.5799e-04 (   0.3 sec)
     CP-SCF ITERATION   9:   1.8429e-04 (   0.3 sec)
     CP-SCF ITERATION  10:   9.9710e-05 (   0.3 sec)
     CP-SCF ITERATION  11:   4.6069e-05 (   0.3 sec)
     CP-SCF ITERATION  12:   2.5703e-05 (   0.3 sec)
                    *** THE CP-SCF HAS CONVERGED ***
                                                 ... done
Finalizing the relaxed density                   ... done
Transforming P to the AO basis                   ... done
Storing the relaxed density                      ... done

------------------------------------
ENERGY WEIGHTED DENSITY FINALIZATION
------------------------------------

Gathering the parts of the W-matrix              ...                                                                                                           done
Forming the Z-density                            ... done
Transforming Z to the AO basis                   ... done
Calculating G(Z)                                 ... done
Finalizing the W-matrix                          ...                                                                                                           done
Transforming W to the AO basis and storing       ... done

                *********************************************
                * UNRELAXED MP2 DENSITY POPULATION ANALYSIS *
                *********************************************

------------------------------------------------------------------------------
                           ORCA POPULATION ANALYSIS
------------------------------------------------------------------------------
Input electron density              ... input.pmp2ur
Input spin density                  ... input.rmp2ur
BaseName (.gbw .S,...)              ... input

                    ********************************
                    * MULLIKEN POPULATION ANALYSIS *
                    ********************************

------------------------------------------
MULLIKEN ATOMIC CHARGES AND SPIN DENSITIES
------------------------------------------
   0 C :    0.100243    0.272933
   1 H :    0.343844   -0.025593
   2 C :    0.555356   -0.057875
   3 F :   -0.409889   -0.000144
   4 O :   -0.520759    0.685927
   5 H :    0.150149    0.114008
   6 F :   -0.417057    0.001562
   7 H :    0.198113    0.009183
Sum of atomic charges       :   -0.0000000
Sum of atomic spin densities:    1.0000000

---------------------------------------------------
MULLIKEN REDUCED ORBITAL CHARGES AND SPIN DENSITIES
---------------------------------------------------
CHARGE
  0 C s       :     3.249973  s :     3.249973
      pz      :     0.587477  p :     2.545782
      px      :     1.027303
      py      :     0.931002
      dz2     :     0.028798  d :     0.104002
      dxz     :     0.020510
      dyz     :     0.021225
      dx2y2   :     0.016268
      dxy     :     0.017201
  1 H s       :     0.656156  s :     0.656156
  2 C s       :     3.041781  s :     3.041781
      pz      :     0.943091  p :     2.278955
      px      :     0.539647
      py      :     0.796217
      dz2     :     0.016384  d :     0.123909
      dxz     :     0.024460
      dyz     :     0.024676
      dx2y2   :     0.026762
      dxy     :     0.031627
  3 F s       :     3.986401  s :     3.986401
      pz      :     1.912104  p :     5.386178
      px      :     1.629061
      py      :     1.845014
      dz2     :     0.006265  d :     0.037310
      dxz     :     0.007294
      dyz     :     0.005304
      dx2y2   :     0.008334
      dxy     :     0.010114
  4 O s       :     3.959768  s :     3.959768
      pz      :     1.652050  p :     4.503444
      px      :     1.456661
      py      :     1.394733
      dz2     :     0.007969  d :     0.057547
      dxz     :     0.011131
      dyz     :     0.009504
      dx2y2   :     0.015542
      dxy     :     0.013400
  5 H s       :     0.849851  s :     0.849851
  6 F s       :     3.980906  s :     3.980906
      pz      :     1.562028  p :     5.399284
      px      :     1.889276
      py      :     1.947979
      dz2     :     0.012593  d :     0.036867
      dxz     :     0.008694
      dyz     :     0.007405
      dx2y2   :     0.004182
      dxy     :     0.003993
  7 H s       :     0.801887  s :     0.801887

SPIN
  0 C s       :     0.097445  s :     0.097445
      pz      :     0.022415  p :     0.168352
      px      :     0.170844
      py      :    -0.024907
      dz2     :     0.000397  d :     0.007136
      dxz     :    -0.000612
      dyz     :    -0.000152
      dx2y2   :     0.003722
      dxy     :     0.003781
  1 H s       :    -0.025593  s :    -0.025593
  2 C s       :    -0.010843  s :    -0.010843
      pz      :    -0.001986  p :    -0.049750
      px      :    -0.027318
      py      :    -0.020446
      dz2     :    -0.000099  d :     0.002718
      dxz     :    -0.000303
      dyz     :     0.001619
      dx2y2   :     0.001994
      dxy     :    -0.000493
  3 F s       :     0.000098  s :     0.000098
      pz      :    -0.000560  p :    -0.000200
      px      :     0.000517
      py      :    -0.000156
      dz2     :    -0.000015  d :    -0.000043
      dxz     :     0.000020
      dyz     :     0.000003
      dx2y2   :    -0.000004
      dxy     :    -0.000045
  4 O s       :     0.001696  s :     0.001696
      pz      :     0.146620  p :     0.685723
      px      :     0.037512
      py      :     0.501590
      dz2     :    -0.000179  d :    -0.001492
      dxz     :    -0.000259
      dyz     :    -0.000169
      dx2y2   :    -0.001159
      dxy     :     0.000273
  5 H s       :     0.114008  s :     0.114008
  6 F s       :    -0.000239  s :    -0.000239
      pz      :    -0.009419  p :     0.001655
      px      :     0.009534
      py      :     0.001540
      dz2     :     0.000076  d :     0.000146
      dxz     :    -0.000138
      dyz     :     0.000129
      dx2y2   :     0.000061
      dxy     :     0.000019
  7 H s       :     0.009183  s :     0.009183


                     *******************************
                     * LOEWDIN POPULATION ANALYSIS *
                     *******************************

-----------------------------------------
LOEWDIN ATOMIC CHARGES AND SPIN DENSITIES
-----------------------------------------
   0 C :   -0.035416    0.245681
   1 H :    0.298112   -0.014520
   2 C :    0.139172   -0.029320
   3 F :   -0.182210   -0.002179
   4 O :   -0.281483    0.703247
   5 H :    0.120253    0.081542
   6 F :   -0.205185    0.010294
   7 H :    0.146758    0.005256

--------------------------------------------------
LOEWDIN REDUCED ORBITAL CHARGES AND SPIN DENSITIES
--------------------------------------------------
CHARGE
  0 C s       :     2.969109  s :     2.969109
      pz      :     0.771814  p :     2.853975
      px      :     1.054697
      py      :     1.027464
      dz2     :     0.065439  d :     0.212332
      dxz     :     0.042872
      dyz     :     0.044152
      dx2y2   :     0.027658
      dxy     :     0.032211
  1 H s       :     0.701888  s :     0.701888
  2 C s       :     2.889135  s :     2.889135
      pz      :     1.048889  p :     2.715074
      px      :     0.762826
      py      :     0.903359
      dz2     :     0.032895  d :     0.256619
      dxz     :     0.048565
      dyz     :     0.045637
      dx2y2   :     0.062485
      dxy     :     0.067038
  3 F s       :     3.755481  s :     3.755481
      pz      :     1.909045  p :     5.373570
      px      :     1.625874
      py      :     1.838651
      dz2     :     0.007985  d :     0.053159
      dxz     :     0.011071
      dyz     :     0.007590
      dx2y2   :     0.011065
      dxy     :     0.015447
  4 O s       :     3.652947  s :     3.652947
      pz      :     1.645827  p :     4.537335
      px      :     1.474691
      py      :     1.416817
      dz2     :     0.012368  d :     0.091201
      dxz     :     0.015872
      dyz     :     0.014621
      dx2y2   :     0.022613
      dxy     :     0.025727
  5 H s       :     0.879747  s :     0.879747
  6 F s       :     3.753801  s :     3.753801
      pz      :     1.571541  p :     5.396618
      px      :     1.884677
      py      :     1.940400
      dz2     :     0.018914  d :     0.054766
      dxz     :     0.013938
      dyz     :     0.012723
      dx2y2   :     0.004935
      dxy     :     0.004256
  7 H s       :     0.853242  s :     0.853242

SPIN
  0 C s       :     0.074035  s :     0.074035
      pz      :     0.018646  p :     0.152220
      px      :     0.144992
      py      :    -0.011418
      dz2     :     0.000536  d :     0.019426
      dxz     :    -0.000429
      dyz     :    -0.000023
      dx2y2   :     0.006842
      dxy     :     0.012500
  1 H s       :    -0.014520  s :    -0.014520
  2 C s       :    -0.005460  s :    -0.005460
      pz      :    -0.002646  p :    -0.033888
      px      :    -0.018457
      py      :    -0.012785
      dz2     :     0.000244  d :     0.010028
      dxz     :     0.000311
      dyz     :     0.003376
      dx2y2   :     0.006162
      dxy     :    -0.000064
  3 F s       :    -0.000315  s :    -0.000315
      pz      :    -0.000633  p :    -0.001542
      px      :    -0.000030
      py      :    -0.000878
      dz2     :     0.000024  d :    -0.000322
      dxz     :    -0.000050
      dyz     :     0.000004
      dx2y2   :    -0.000261
      dxy     :    -0.000040
  4 O s       :     0.035313  s :     0.035313
      pz      :     0.140805  p :     0.665003
      px      :     0.029044
      py      :     0.495155
      dz2     :     0.000825  d :     0.002931
      dxz     :    -0.000562
      dyz     :     0.001516
      dx2y2   :     0.000311
      dxy     :     0.000842
  5 H s       :     0.081542  s :     0.081542
  6 F s       :     0.000757  s :     0.000757
      pz      :    -0.007312  p :     0.007515
      px      :     0.012622
      py      :     0.002205
      dz2     :     0.000216  d :     0.002022
      dxz     :     0.001011
      dyz     :     0.000448
      dx2y2   :     0.000375
      dxy     :    -0.000027
  7 H s       :     0.005256  s :     0.005256


                      *****************************
                      * MAYER POPULATION ANALYSIS *
                      *****************************

  NA   - Mulliken gross atomic population
  ZA   - Total nuclear charge
  QA   - Mulliken gross atomic charge
  VA   - Mayer's total valence
  BVA  - Mayer's bonded valence
  FA   - Mayer's free valence

  ATOM       NA         ZA         QA         VA         BVA        FA
  0 C      5.8998     6.0000     0.1002     3.6052     3.2233     0.3819
  1 H      0.6562     1.0000     0.3438     0.8659     0.8155     0.0504
  2 C      5.4446     6.0000     0.5554     3.5170     3.2314     0.2856
  3 F      9.4099     9.0000    -0.4099     1.1108     0.7881     0.3227
  4 O      8.5208     8.0000    -0.5208     2.0861     1.2684     0.8177
  5 H      0.8499     1.0000     0.1501     0.9388     0.8833     0.0555
  6 F      9.4171     9.0000    -0.4171     1.0869     0.7646     0.3223
  7 H      0.8019     1.0000     0.1981     0.9331     0.8828     0.0502

  Mayer bond orders larger than 0.100000
B(  0-C ,  1-H ) :   0.6095 B(  0-C ,  2-C ) :   0.8013 B(  0-C ,  4-O ) :   0.1900 
B(  0-C ,  5-H ) :   0.8885 B(  0-C ,  6-F ) :   0.7479 B(  1-H ,  4-O ) :   0.1926 
B(  2-C ,  3-F ) :   0.7565 B(  2-C ,  4-O ) :   0.8158 B(  2-C ,  7-H ) :   0.8753 



                *******************************************
                * RELAXED MP2 DENSITY POPULATION ANALYSIS *
                *******************************************

------------------------------------------------------------------------------
                           ORCA POPULATION ANALYSIS
------------------------------------------------------------------------------
Input electron density              ... input.pmp2re
Input spin density                  ... input.rmp2re
BaseName (.gbw .S,...)              ... input

                    ********************************
                    * MULLIKEN POPULATION ANALYSIS *
                    ********************************

------------------------------------------
MULLIKEN ATOMIC CHARGES AND SPIN DENSITIES
------------------------------------------
   0 C :    0.066016    0.219964
   1 H :    0.339295    0.076961
   2 C :    0.457307    0.019958
   3 F :   -0.336425   -0.002466
   4 O :   -0.500095    0.534961
   5 H :    0.148109    0.134279
   6 F :   -0.340174    0.013716
   7 H :    0.165967    0.002627
Sum of atomic charges       :   -0.0000000
Sum of atomic spin densities:    1.0000000

---------------------------------------------------
MULLIKEN REDUCED ORBITAL CHARGES AND SPIN DENSITIES
---------------------------------------------------
CHARGE
  0 C s       :     3.247191  s :     3.247191
      pz      :     0.633901  p :     2.586828
      px      :     1.020160
      py      :     0.932766
      dz2     :     0.027717  d :     0.099966
      dxz     :     0.020281
      dyz     :     0.020755
      dx2y2   :     0.015008
      dxy     :     0.016205
  1 H s       :     0.660705  s :     0.660705
  2 C s       :     3.062225  s :     3.062225
      pz      :     0.944171  p :     2.360846
      px      :     0.593422
      py      :     0.823253
      dz2     :     0.015781  d :     0.119623
      dxz     :     0.025019
      dyz     :     0.022147
      dx2y2   :     0.026694
      dxy     :     0.029982
  3 F s       :     3.976431  s :     3.976431
      pz      :     1.896449  p :     5.323718
      px      :     1.603827
      py      :     1.823442
      dz2     :     0.006079  d :     0.036276
      dxz     :     0.007172
      dyz     :     0.005371
      dx2y2   :     0.008174
      dxy     :     0.009480
  4 O s       :     3.942885  s :     3.942885
      pz      :     1.631501  p :     4.501888
      px      :     1.413247
      py      :     1.457140
      dz2     :     0.007818  d :     0.055323
      dxz     :     0.010453
      dyz     :     0.009279
      dx2y2   :     0.014250
      dxy     :     0.013523
  5 H s       :     0.851891  s :     0.851891
  6 F s       :     3.972259  s :     3.972259
      pz      :     1.530794  p :     5.331642
      px      :     1.868019
      py      :     1.932830
      dz2     :     0.011675  d :     0.036273
      dxz     :     0.008569
      dyz     :     0.007780
      dx2y2   :     0.004215
      dxy     :     0.004035
  7 H s       :     0.834033  s :     0.834033

SPIN
  0 C s       :     0.082443  s :     0.082443
      pz      :     0.018843  p :     0.128295
      px      :     0.121028
      py      :    -0.011576
      dz2     :     0.000689  d :     0.009225
      dxz     :    -0.000372
      dyz     :     0.000053
      dx2y2   :     0.004229
      dxy     :     0.004626
  1 H s       :     0.076961  s :     0.076961
  2 C s       :     0.004821  s :     0.004821
      pz      :     0.014587  p :     0.013448
      px      :    -0.007578
      py      :     0.006439
      dz2     :    -0.000208  d :     0.001688
      dxz     :    -0.000276
      dyz     :     0.001044
      dx2y2   :     0.001639
      dxy     :    -0.000511
  3 F s       :     0.000020  s :     0.000020
      pz      :     0.000168  p :    -0.002495
      px      :    -0.001029
      py      :    -0.001633
      dz2     :     0.000001  d :     0.000008
      dxz     :     0.000009
      dyz     :    -0.000000
      dx2y2   :    -0.000019
      dxy     :     0.000017
  4 O s       :    -0.006511  s :    -0.006511
      pz      :     0.112132  p :     0.540788
      px      :     0.011464
      py      :     0.417193
      dz2     :    -0.000009  d :     0.000683
      dxz     :     0.000073
      dyz     :     0.000425
      dx2y2   :    -0.000297
      dxy     :     0.000492
  5 H s       :     0.134279  s :     0.134279
  6 F s       :     0.000184  s :     0.000184
      pz      :    -0.005010  p :     0.013440
      px      :     0.014229
      py      :     0.004220
      dz2     :    -0.000030  d :     0.000092
      dxz     :    -0.000100
      dyz     :     0.000130
      dx2y2   :     0.000071
      dxy     :     0.000022
  7 H s       :     0.002627  s :     0.002627


                     *******************************
                     * LOEWDIN POPULATION ANALYSIS *
                     *******************************

-----------------------------------------
LOEWDIN ATOMIC CHARGES AND SPIN DENSITIES
-----------------------------------------
   0 C :   -0.063088    0.213893
   1 H :    0.304369    0.058065
   2 C :    0.096191    0.028937
   3 F :   -0.147570   -0.002169
   4 O :   -0.292627    0.582165
   5 H :    0.132057    0.098092
   6 F :   -0.164720    0.019933
   7 H :    0.135388    0.001084

--------------------------------------------------
LOEWDIN REDUCED ORBITAL CHARGES AND SPIN DENSITIES
--------------------------------------------------
CHARGE
  0 C s       :     2.977976  s :     2.977976
      pz      :     0.796405  p :     2.876001
      px      :     1.052079
      py      :     1.027518
      dz2     :     0.063848  d :     0.209110
      dxz     :     0.042510
      dyz     :     0.044659
      dx2y2   :     0.026296
      dxy     :     0.031797
  1 H s       :     0.695631  s :     0.695631
  2 C s       :     2.899636  s :     2.899636
      pz      :     1.047595  p :     2.749396
      px      :     0.783918
      py      :     0.917884
      dz2     :     0.032225  d :     0.254777
      dxz     :     0.050378
      dyz     :     0.043417
      dx2y2   :     0.063347
      dxy     :     0.065411
  3 F s       :     3.757701  s :     3.757701
      pz      :     1.899034  p :     5.336167
      px      :     1.613254
      py      :     1.823879
      dz2     :     0.008056  d :     0.053701
      dxz     :     0.011094
      dyz     :     0.007672
      dx2y2   :     0.011384
      dxy     :     0.015495
  4 O s       :     3.650999  s :     3.650999
      pz      :     1.631324  p :     4.552598
      px      :     1.452041
      py      :     1.469233
      dz2     :     0.012240  d :     0.089030
      dxz     :     0.015419
      dyz     :     0.013972
      dx2y2   :     0.021409
      dxy     :     0.025991
  5 H s       :     0.867943  s :     0.867943
  6 F s       :     3.756023  s :     3.756023
      pz      :     1.554175  p :     5.353101
      px      :     1.868952
      py      :     1.929974
      dz2     :     0.019120  d :     0.055596
      dxz     :     0.014359
      dyz     :     0.012839
      dx2y2   :     0.004948
      dxy     :     0.004330
  7 H s       :     0.864612  s :     0.864612

SPIN
  0 C s       :     0.066314  s :     0.066314
      pz      :     0.015702  p :     0.123736
      px      :     0.111598
      py      :    -0.003564
      dz2     :     0.001233  d :     0.023843
      dxz     :    -0.000112
      dyz     :     0.000148
      dx2y2   :     0.008377
      dxy     :     0.014197
  1 H s       :     0.058065  s :     0.058065
  2 C s       :     0.003492  s :     0.003492
      pz      :     0.011729  p :     0.018265
      px      :    -0.003343
      py      :     0.009879
      dz2     :    -0.000217  d :     0.007179
      dxz     :     0.000211
      dyz     :     0.002448
      dx2y2   :     0.005493
      dxy     :    -0.000756
  3 F s       :    -0.000158  s :    -0.000158
      pz      :     0.000327  p :    -0.002264
      px      :    -0.000796
      py      :    -0.001795
      dz2     :     0.000082  d :     0.000253
      dxz     :     0.000078
      dyz     :     0.000017
      dx2y2   :    -0.000056
      dxy     :     0.000132
  4 O s       :     0.034641  s :     0.034641
      pz      :     0.111464  p :     0.540655
      px      :     0.009020
      py      :     0.420171
      dz2     :     0.001247  d :     0.006869
      dxz     :     0.000242
      dyz     :     0.002343
      dx2y2   :     0.001577
      dxy     :     0.001460
  5 H s       :     0.098092  s :     0.098092
  6 F s       :     0.000758  s :     0.000758
      pz      :    -0.003962  p :     0.017668
      px      :     0.016598
      py      :     0.005033
      dz2     :    -0.000029  d :     0.001507
      dxz     :     0.000631
      dyz     :     0.000562
      dx2y2   :     0.000364
      dxy     :    -0.000022
  7 H s       :     0.001084  s :     0.001084


                      *****************************
                      * MAYER POPULATION ANALYSIS *
                      *****************************

  NA   - Mulliken gross atomic population
  ZA   - Total nuclear charge
  QA   - Mulliken gross atomic charge
  VA   - Mayer's total valence
  BVA  - Mayer's bonded valence
  FA   - Mayer's free valence

  ATOM       NA         ZA         QA         VA         BVA        FA
  0 C      5.9340     6.0000     0.0660     3.7011     3.3622     0.3389
  1 H      0.6607     1.0000     0.3393     0.8722     0.8318     0.0404
  2 C      5.5427     6.0000     0.4573     3.7037     3.4348     0.2689
  3 F      9.3364     9.0000    -0.3364     1.2249     0.9092     0.3157
  4 O      8.5001     8.0000    -0.5001     2.1416     1.5280     0.6135
  5 H      0.8519     1.0000     0.1481     0.9352     0.8792     0.0561
  6 F      9.3402     9.0000    -0.3402     1.2081     0.8954     0.3127
  7 H      0.8340     1.0000     0.1660     0.9415     0.8927     0.0488

  Mayer bond orders larger than 0.100000
B(  0-C ,  1-H ) :   0.5703 B(  0-C ,  2-C ) :   0.8152 B(  0-C ,  4-O ) :   0.2737 
B(  0-C ,  5-H ) :   0.8561 B(  0-C ,  6-F ) :   0.8545 B(  1-H ,  4-O ) :   0.2299 
B(  2-C ,  3-F ) :   0.8603 B(  2-C ,  4-O ) :   0.8993 B(  2-C ,  7-H ) :   0.8613 



----------------------------------
MP2 DERIVATIVE INTEGRAL GENERATION
----------------------------------


Input Wavefunction Amplitudes       ... input.mp2tbb.tmp
Input Correlated Electron Density   ... input.pmp2re
Input Energy Weighted Density       ... input.wmp2.tmp
Input SCF Electron Density          ... input.scfp

One-Electron Terms    ...
                        ... One-Electron Terms done
Prescreening matrices              ... done

Batch handling in the gradient evaluation:
Memory available                      ...  256.0 MB
Memory per occupied orbital in Q2     ...    1.8 MB
Memory per occupied orbital in Q3     ...    0.0 MB
Total memory requirement per |i>      ...    1.8 MB
Max. Number of orbitals possible      ...    140
Number of orbitals treated per batch  ...     41
Number of batches to be done          ...      1
Batch   0: i=    0 ...    40

---------------------------------------
MP2 TOTAL ENERGY:     -351.712072162 Eh
---------------------------------------

The final MP2 gradient
  0:   0.03854966   0.09079279  -0.03364493
  1:   0.03960714   0.03871991  -0.02251366
  2:   0.04283485   0.07100830  -0.03250001
  3:  -0.01735999  -0.02000040  -0.00402138
  4:  -0.02158660  -0.11812049   0.08474227
  5:  -0.02432771   0.03302158   0.02836454
  6:  -0.00776537  -0.04262426  -0.01393611
  7:  -0.04995199  -0.05279743  -0.00649072

-----------------------------------
NORM OF THE MP2 GRADIENT:  0.233602
-----------------------------------

Maximum memory used throughout the entire MP2-calculation: 152.6 MB

-------------------------   --------------------
FINAL SINGLE POINT ENERGY      -351.712072161690
-------------------------   --------------------

------------------------------------------------------------------------------
                         ORCA GEOMETRY RELAXATION STEP
------------------------------------------------------------------------------

Reading the OPT-File                    .... done
Getting information on internals        .... done
Copying old internal coords+grads       .... done
Making the new internal coordinates     .... (new redundants).... done
Validating the new internal coordinates .... (new redundants).... done
Calculating the B-matrix                .... done
Calculating the G,G- and P matrices     .... done
Transforming gradient to internals      .... done
Projecting the internal gradient        .... done
Number of atoms                         ....   8
Number of internal coordinates          ....  55
Current Energy                          ....  -351.712072162 Eh
Current gradient norm                   ....     0.233601710 Eh/bohr
Maximum allowed component of the step   ....  0.300
Current trust radius                    ....  0.300
Evaluating the initial hessian          ....  (Almloef) done
Projecting the Hessian                  .... done
Diagonalizing the Hessian               .... done
Dimension of the hessian                ....  55
Lowest eigenvalues of the Hessian:
  0.025502624  0.037373004  0.057382332  0.080268897  0.101773124
Hessian has   0 negative eigenvalues
Taking P-RFO step
Searching for lambda that maximizes along the lowest mode
TS mode is mode number   0 with eigenvalue   0.02550262 and components:
   1.   -0.01725529
   2.   -0.01049855
   3.   -0.00000000
   4.    0.01129005
   5.   -0.04671387
   6.    0.03718011
   7.   -0.00000000
   8.    0.00000000
   9.   -0.00000000
  10.    0.07825159
  11.   -0.06336718
  12.    0.00754775
  13.   -0.04712650
  14.   -0.02755560
  15.   -0.05965945
  16.    0.06882120
  17.   -0.00231401
  18.    0.08816272
  19.   -0.05118369
  20.    0.04268800
  21.    0.01706380
  22.   -0.00306644
  23.    0.02155218
  24.   -0.00608512
  25.   -0.02086657
  26.    0.00186495
  27.   -0.01513240
  28.    0.08067345
  29.   -0.01474979
  30.   -0.16256989
  31.   -0.20025750
  32.   -0.06008052
  33.    0.19844484
  34.    0.02356095
  35.    0.17745838
  36.    0.01763446
  37.    0.22200579
  38.    0.15389743
  39.    0.22245798
  40.    0.21653149
  41.    0.19889703
  42.    0.21607931
  43.    0.17153190
  44.   -0.28334247
  45.   -0.20224172
  46.   -0.18538082
  47.   -0.19947872
  48.    0.01409790
  49.    0.22052038
  50.    0.12096235
  51.   -0.00276300
  52.    0.38816002
  53.    0.28334247
  54.   -0.16238012
  55.    0.10481755

Lambda that maximizes along the TS mode:       0.03115660
Searching for lambda that minimizes along all other modes
In cycle   1: lambdaN =  -0.05501637   step =   0.05501637
In cycle   2: lambdaN =  -0.07271094   step =   0.01769457
In cycle   3: lambdaN =  -0.07327224   step =   0.00056130
In cycle   4: lambdaN =  -0.07327269   step =   0.00000045
In cycle   5: lambdaN =  -0.07327269   step =   0.00000000
Lambda that minimizes along all other modes:  -0.07327269
Calculated stepsize too large (   1.5126 >    0.3000). Scaled with    0.1983.
The final length of the internal step   ....       0.3000
Converting the step to cartesian space:
 Initial RMS(Int)=    0.0404519917
Transforming coordinates:
 Iter   0:  RMS(Cart)=    0.0371395445 RMS(Int)=    0.0388869509
 Iter   1:  RMS(Cart)=    0.0010977562 RMS(Int)=    0.0010578935
 Iter   2:  RMS(Cart)=    0.0000435441 RMS(Int)=    0.0000507871
 Iter   3:  RMS(Cart)=    0.0000029504 RMS(Int)=    0.0000033332
 Iter   4:  RMS(Cart)=    0.0000001351 RMS(Int)=    0.0000001522
 Iter   5:  RMS(Cart)=    0.0000000088 RMS(Int)=    0.0000000105
done
Storing new coordinates                 .... done

[...]
AutoCI program output          ... >input.lastautoci

	<< Calculating on displaced geometry   1 (of  48) >>
	<< Calculating on displaced geometry   2 (of  48) >>
	<< Calculating on displaced geometry   3 (of  48) >>
	<< Calculating on displaced geometry   4 (of  48) >>
	<< Calculating on displaced geometry   5 (of  48) >>
	<< Calculating on displaced geometry   6 (of  48) >>
	<< Calculating on displaced geometry   7 (of  48) >>
	<< Calculating on displaced geometry   8 (of  48) >>
	<< Calculating on displaced geometry   9 (of  48) >>
	<< Calculating on displaced geometry  10 (of  48) >>
	<< Calculating on displaced geometry  11 (of  48) >>
	<< Calculating on displaced geometry  12 (of  48) >>
	<< Calculating on displaced geometry  13 (of  48) >>
	<< Calculating on displaced geometry  14 (of  48) >>
	<< Calculating on displaced geometry  15 (of  48) >>
	<< Calculating on displaced geometry  16 (of  48) >>
	<< Calculating on displaced geometry  17 (of  48) >>
	<< Calculating on displaced geometry  18 (of  48) >>
	<< Calculating on displaced geometry  19 (of  48) >>
	<< Calculating on displaced geometry  20 (of  48) >>
	<< Calculating on displaced geometry  21 (of  48) >>
	<< Calculating on displaced geometry  22 (of  48) >>
	<< Calculating on displaced geometry  23 (of  48) >>
	<< Calculating on displaced geometry  24 (of  48) >>
	<< Calculating on displaced geometry  25 (of  48) >>
	<< Calculating on displaced geometry  26 (of  48) >>
	<< Calculating on displaced geometry  27 (of  48) >>
	<< Calculating on displaced geometry  28 (of  48) >>
	<< Calculating on displaced geometry  29 (of  48) >>
	<< Calculating on displaced geometry  30 (of  48) >>
	<< Calculating on displaced geometry  31 (of  48) >>
	<< Calculating on displaced geometry  32 (of  48) >>
	<< Calculating on displaced geometry  33 (of  48) >>
	<< Calculating on displaced geometry  34 (of  48) >>
	<< Calculating on displaced geometry  35 (of  48) >>
	<< Calculating on displaced geometry  36 (of  48) >>
	<< Calculating on displaced geometry  37 (of  48) >>
	<< Calculating on displaced geometry  38 (of  48) >>
	<< Calculating on displaced geometry  39 (of  48) >>
	<< Calculating on displaced geometry  40 (of  48) >>
	<< Calculating on displaced geometry  41 (of  48) >>
	<< Calculating on displaced geometry  42 (of  48) >>
	<< Calculating on displaced geometry  43 (of  48) >>
	<< Calculating on displaced geometry  44 (of  48) >>
	<< Calculating on displaced geometry  45 (of  48) >>
	<< Calculating on displaced geometry  46 (of  48) >>
	<< Calculating on displaced geometry  47 (of  48) >>
	<< Calculating on displaced geometry  48 (of  48) >>

-----------------------
VIBRATIONAL FREQUENCIES
-----------------------

Scaling factor for frequencies =  1.000000000 (already applied!)

   0:         0.00 cm**-1
   1:         0.00 cm**-1
   2:         0.00 cm**-1
   3:         0.00 cm**-1
   4:         0.00 cm**-1
   5:         0.00 cm**-1
   6:     -2546.19 cm**-1 ***imaginary mode***
   7:       205.89 cm**-1
   8:       247.15 cm**-1
   9:       510.79 cm**-1
  10:       610.39 cm**-1
  11:       711.73 cm**-1
  12:       907.18 cm**-1
  13:      1033.94 cm**-1
  14:      1076.90 cm**-1
  15:      1147.75 cm**-1
  16:      1216.13 cm**-1
  17:      1252.55 cm**-1
  18:      1329.78 cm**-1
  19:      1419.02 cm**-1
  20:      1455.07 cm**-1
  21:      2107.84 cm**-1
  22:      3196.92 cm**-1
  23:      3225.24 cm**-1


------------
NORMAL MODES
------------

These modes are the cartesian displacements weighted by the diagonal matrix
M(i,i)=1/sqrt(m[i]) where m[i] is the mass of the displaced atom
Thus, these vectors are normalized but *not* orthogonal

                  0          1          2          3          4          5    
      0       0.000000   0.000000   0.000000   0.000000   0.000000   0.000000
      1       0.000000   0.000000   0.000000   0.000000   0.000000   0.000000
      2       0.000000   0.000000   0.000000   0.000000   0.000000   0.000000
      3       0.000000   0.000000   0.000000   0.000000   0.000000   0.000000
      4       0.000000   0.000000   0.000000   0.000000   0.000000   0.000000
      5       0.000000   0.000000   0.000000   0.000000   0.000000   0.000000
      6       0.000000   0.000000   0.000000   0.000000   0.000000   0.000000
      7       0.000000   0.000000   0.000000   0.000000   0.000000   0.000000
      8       0.000000   0.000000   0.000000   0.000000   0.000000   0.000000
      9       0.000000   0.000000   0.000000   0.000000   0.000000   0.000000
     10       0.000000   0.000000   0.000000   0.000000   0.000000   0.000000
     11       0.000000   0.000000   0.000000   0.000000   0.000000   0.000000
     12       0.000000   0.000000   0.000000   0.000000   0.000000   0.000000
     13       0.000000   0.000000   0.000000   0.000000   0.000000   0.000000
     14       0.000000   0.000000   0.000000   0.000000   0.000000   0.000000
     15       0.000000   0.000000   0.000000   0.000000   0.000000   0.000000
     16       0.000000   0.000000   0.000000   0.000000   0.000000   0.000000
     17       0.000000   0.000000   0.000000   0.000000   0.000000   0.000000
     18       0.000000   0.000000   0.000000   0.000000   0.000000   0.000000
     19       0.000000   0.000000   0.000000   0.000000   0.000000   0.000000
     20       0.000000   0.000000   0.000000   0.000000   0.000000   0.000000
     21       0.000000   0.000000   0.000000   0.000000   0.000000   0.000000
     22       0.000000   0.000000   0.000000   0.000000   0.000000   0.000000
     23       0.000000   0.000000   0.000000   0.000000   0.000000   0.000000
                  6          7          8          9         10         11    
      0       0.059388   0.153256  -0.125291   0.024931   0.365994   0.061573
      1       0.020418   0.181749  -0.008106  -0.241556  -0.079196  -0.136883
      2      -0.007090   0.136966   0.051666   0.025413  -0.003232   0.069054
      3      -0.256730   0.006069  -0.083683  -0.121076   0.227047   0.287243
      4      -0.619556   0.494430  -0.169676   0.104411   0.031219  -0.401274
      5       0.733426   0.150971   0.040288  -0.060617   0.075455  -0.399579
      6      -0.004978  -0.007211  -0.097135  -0.128265  -0.127036   0.085352
      7       0.005732  -0.022605   0.099713  -0.291831  -0.060349   0.012647
      8      -0.009577   0.027959   0.048938   0.005082   0.281275   0.185893
      9       0.000889   0.081433  -0.099566   0.415774  -0.138801  -0.047686
     10      -0.000615   0.067180   0.347639   0.029756   0.216338   0.027762
     11      -0.000347  -0.001449  -0.513235  -0.101270  -0.041701  -0.034723
     12      -0.017707  -0.043158  -0.047347  -0.385353  -0.080458   0.052695
     13       0.018431  -0.032590  -0.012562   0.342848  -0.226903   0.114321
     14      -0.032002  -0.203366   0.164586   0.131989   0.198923  -0.153527
     15      -0.075062   0.628588  -0.281337   0.108872   0.467300  -0.551630
     16       0.001077   0.267707   0.034602  -0.281737  -0.053044  -0.223163
     17      -0.028489   0.105723  -0.258469   0.242321  -0.074582  -0.020703
     18      -0.002684  -0.163776   0.296999  -0.014830   0.029201  -0.075444
     19       0.001313  -0.172751  -0.382539   0.048342   0.072579  -0.002992
     20       0.000777   0.046979   0.319810  -0.042205  -0.321241   0.009005
     21      -0.001654  -0.137936   0.045805  -0.196868  -0.198995  -0.002039
     22       0.001190  -0.151442  -0.099341  -0.380630  -0.159267  -0.176560
     23      -0.006502   0.147837   0.052641   0.064115   0.369174   0.303905
                 12         13         14         15         16         17    
      0      -0.027278   0.209641  -0.206865   0.075499  -0.066971  -0.012941
      1       0.248807   0.042454  -0.022422  -0.137450   0.052979  -0.007664
      2      -0.038238   0.032160   0.073121  -0.149849   0.079416  -0.122485
      3       0.121795   0.346543  -0.090562  -0.113942   0.106535   0.122100
      4      -0.096677  -0.363844   0.182161   0.202128  -0.574545  -0.380002
      5      -0.124760  -0.461589   0.306740   0.100378  -0.325559  -0.219830
      6      -0.068057   0.037993   0.433631  -0.200617  -0.068256   0.080957
      7      -0.005565   0.093948   0.238808   0.231949   0.059931   0.000069
      8       0.124684  -0.137994   0.195831   0.192889   0.013854  -0.041055
      9       0.078837   0.014596   0.020131   0.083211   0.022029  -0.015003
     10      -0.107080  -0.025930  -0.081297  -0.140350  -0.035741   0.018731
     11      -0.027768  -0.002520  -0.053920  -0.094871  -0.021652   0.016273
     12      -0.008320  -0.146515  -0.314647   0.042933   0.026469  -0.018263
     13      -0.014284  -0.064029  -0.095537  -0.015806   0.014868  -0.002895
     14       0.048617   0.062446  -0.044015  -0.028619   0.009284   0.031718
     15      -0.577981  -0.358954   0.321898   0.454728   0.398836   0.538295
     16       0.267510  -0.036727   0.095656  -0.030811   0.020824   0.120412
     17      -0.472426  -0.074841  -0.028089  -0.358905   0.559965  -0.321313
     18       0.017446  -0.055034   0.065730  -0.053491   0.023430  -0.035657
     19      -0.024275  -0.006147  -0.000401   0.053101  -0.026177   0.026817
     20      -0.051129   0.062581  -0.105429   0.105549  -0.059121   0.073488
     21      -0.090446   0.149321   0.442449  -0.091481  -0.170932  -0.226184
     22      -0.366829   0.396107   0.199947   0.597928   0.139334  -0.462412
     23       0.282460  -0.325620   0.218508  -0.001337   0.029208   0.294669
                 18         19         20         21         22         23    
      0       0.043870   0.024179   0.009523   0.046466  -0.003496   0.014170
      1      -0.043972   0.026558   0.084128   0.016525   0.015806  -0.082190
      2       0.018532  -0.145854  -0.181821  -0.001496   0.005955  -0.014733
      3      -0.081760   0.034725   0.078340  -0.911285   0.011921   0.009349
      4       0.265925   0.040451   0.052982  -0.052208  -0.000483  -0.004629
      5       0.155325   0.009933   0.050143  -0.399653   0.000320   0.000751
      6       0.016198  -0.036102   0.107587   0.031467  -0.035293  -0.008273
      7       0.148076   0.052568  -0.131570  -0.005274  -0.026724  -0.003731
      8      -0.097889   0.038844   0.079042   0.018110  -0.071756  -0.017562
      9       0.007304   0.006306  -0.016153  -0.001967   0.000553  -0.000131
     10      -0.031291   0.007538   0.007053   0.001173  -0.000297   0.000384
     11      -0.008201   0.014201  -0.019324  -0.000017   0.000070   0.000034
     12       0.003769  -0.018615  -0.015370   0.005165  -0.000056  -0.000129
     13      -0.014616  -0.018776   0.002359  -0.005734   0.000594   0.000401
     14       0.027506  -0.004428   0.011078   0.008886   0.000403   0.000154
     15      -0.281263  -0.073704  -0.142229  -0.030584   0.030509  -0.151287
     16      -0.169642  -0.151166  -0.069719   0.007794  -0.197389   0.941614
     17       0.310865   0.609379   0.480331   0.014555  -0.047700   0.204245
     18       0.004050  -0.012375  -0.014027  -0.003223   0.000220  -0.000376
     19      -0.010288  -0.011274  -0.010554  -0.001236  -0.000185   0.000473
     20      -0.010749   0.027268   0.040917   0.000692   0.000016   0.000184
     21      -0.626533   0.590900  -0.518796   0.029110   0.406111   0.083263
     22      -0.321115  -0.463693   0.610559   0.002553   0.327635   0.064295
     23       0.399996  -0.055494   0.111407   0.033372   0.823414   0.173259


-----------
IR SPECTRUM
-----------

 Mode   freq       eps      Int      T**2         TX        TY        TZ
       cm**-1   L/(mol*cm) km/mol    a.u.
----------------------------------------------------------------------------
  7:    205.89   0.001595    8.06  0.002417  ( 0.025116  0.032007  0.027599)
  8:    247.15   0.000159    0.81  0.000201  (-0.011723  0.004979  0.006252)
  9:    510.79   0.001680    8.49  0.001027  (-0.007820 -0.031071  0.000356)
 10:    610.39   0.002092   10.57  0.001069  ( 0.025074 -0.008753  0.019081)
 11:    711.73   0.002000   10.11  0.000877  ( 0.001337 -0.023851  0.017503)
 12:    907.18   0.008344   42.17  0.002870  (-0.037094  0.038398  0.004480)
 13:   1033.94   0.014602   73.79  0.004407  ( 0.045447  0.017169 -0.045245)
 14:   1076.90   0.014881   75.20  0.004312  ( 0.029962 -0.001952  0.058400)
 15:   1147.75   0.014380   72.67  0.003910  (-0.028752  0.053758 -0.013899)
 16:   1216.13   0.008629   43.61  0.002214  (-0.027675 -0.004069  0.037839)
 17:   1252.55   0.015406   77.86  0.003838  ( 0.041484 -0.035796 -0.028913)
 18:   1329.78   0.003735   18.88  0.000877  (-0.014089  0.025105  0.006913)
 19:   1419.02   0.005540   28.00  0.001218  ( 0.005266  0.021288 -0.027156)
 20:   1455.07   0.011075   55.97  0.002375  ( 0.042224 -0.011816 -0.021280)
 21:   2107.84   0.003155   15.94  0.000467  (-0.012105  0.005539 -0.017025)
 22:   3196.92   0.005745   29.03  0.000561  (-0.010882 -0.006170 -0.020108)
 23:   3225.24   0.001989   10.05  0.000192  ( 0.003117 -0.007792 -0.011047)

* The epsilon (eps) is given for a Dirac delta lineshape.
** The dipole moment derivative (T) already includes vibrational overlap.

The first frequency considered to be a vibration is 7
The total number of vibrations considered is 17


--------------------------
THERMOCHEMISTRY AT 298.15K
--------------------------

Temperature         ... 298.15 K
Pressure            ... 1.00 atm
Total Mass          ... 81.04 AMU

Throughout the following assumptions are being made:
  (1) The electronic state is orbitally nondegenerate
      but the spin degeneracy is treated
  (2) There are no thermally accessible electronically excited states
  (3) Hindered rotations indicated by low frequency modes are not
      treated as such but are treated as vibrations and this may
      cause some error
  (4) All equations used are the standard statistical mechanics
      equations for an ideal gas
  (5) All vibrations are strictly harmonic

freq.     205.89  E(vib)   ...       0.35 
freq.     247.15  E(vib)   ...       0.31 
freq.     510.79  E(vib)   ...       0.14 
freq.     610.39  E(vib)   ...       0.10 
freq.     711.73  E(vib)   ...       0.07 
freq.     907.18  E(vib)   ...       0.03 
freq.    1033.94  E(vib)   ...       0.02 
freq.    1076.90  E(vib)   ...       0.02 
freq.    1147.75  E(vib)   ...       0.01 
freq.    1216.13  E(vib)   ...       0.01 
freq.    1252.55  E(vib)   ...       0.01 
freq.    1329.78  E(vib)   ...       0.01 
freq.    1419.02  E(vib)   ...       0.00 
freq.    1455.07  E(vib)   ...       0.00 
freq.    2107.84  E(vib)   ...       0.00 
freq.    3196.92  E(vib)   ...       0.00 
freq.    3225.24  E(vib)   ...       0.00 

------------
INNER ENERGY
------------

The inner energy is: U= E(el) + E(ZPE) + E(vib) + E(rot) + E(trans)
    E(el)   - is the total energy from the electronic structure calculation
              = E(kin-el) + E(nuc-el) + E(el-el) + E(nuc-nuc)
    E(ZPE)  - the the zero temperature vibrational energy from the frequency calculation
    E(vib)  - the the finite temperature correction to E(ZPE) due to population
              of excited vibrational states
    E(rot)  - is the rotational thermal energy
    E(trans)- is the translational thermal energy

Summary of contributions to the inner energy U:
Electronic energy                ...   -351.83303268 Eh
Zero point energy                ...      0.04933204 Eh      30.96 kcal/mol
Thermal vibrational correction   ...      0.00170590 Eh       1.07 kcal/mol
Thermal rotational correction    ...      0.00141627 Eh       0.89 kcal/mol
Thermal translational correction ...      0.00141627 Eh       0.89 kcal/mol
-----------------------------------------------------------------------
Total thermal energy                   -351.77916220 Eh


Summary of corrections to the electronic energy:
(perhaps to be used in another calculation)
Total thermal correction                  0.00453844 Eh       2.85 kcal/mol
Non-thermal (ZPE) correction              0.04933204 Eh      30.96 kcal/mol
-----------------------------------------------------------------------
Total correction                          0.05387048 Eh      33.80 kcal/mol


--------
ENTHALPY
--------

The enthalpy is H = U + kB*T
                kB is Boltzmann's constant
Total free energy                 ...   -351.77916220 Eh 
Thermal Enthalpy correction       ...      0.00094421 Eh       0.59 kcal/mol
-----------------------------------------------------------------------
Total Enthalpy                    ...   -351.77821799 Eh


Note: Only C1 symmetry has been detected, increase convergence thresholds 
      if your molecule has a higher symmetry. Symmetry factor of 1.0 is   
      used for the rotational entropy correction. 
 

Note: Rotational entropy computed according to Herzberg 
Infrared and Raman Spectra, Chapter V,1, Van Nostrand Reinhold, 1945 
Point Group:  C1, Symmetry Number:   1  
Rotational constants in cm-1:     0.259774     0.154974     0.110126 

Vibrational entropy computed according to the QRRHO of S. Grimme
Chem.Eur.J. 2012 18 9955


-------
ENTROPY
-------

The entropy contributions are T*S = T*(S(el)+S(vib)+S(rot)+S(trans))
     S(el)   - electronic entropy
     S(vib)  - vibrational entropy
     S(rot)  - rotational entropy
     S(trans)- translational entropy
The entropies will be listed as multiplied by the temperature to get
units of energy

Electronic entropy                ...      0.00065446 Eh      0.41 kcal/mol
Vibrational entropy               ...      0.00269024 Eh      1.69 kcal/mol
Rotational entropy                ...      0.01206887 Eh      7.57 kcal/mol
Translational entropy             ...      0.01857352 Eh     11.66 kcal/mol
-----------------------------------------------------------------------
Final entropy term                ...      0.03398708 Eh     21.33 kcal/mol

In case the symmetry of your molecule has not been determined correctly
or in case you have a reason to use a different symmetry number we print 
out the resulting rotational entropy values for sn=1,12 :
 --------------------------------------------------------
|  sn= 1 | S(rot)=       0.01206887 Eh      7.57 kcal/mol|
|  sn= 2 | S(rot)=       0.01141441 Eh      7.16 kcal/mol|
|  sn= 3 | S(rot)=       0.01103158 Eh      6.92 kcal/mol|
|  sn= 4 | S(rot)=       0.01075995 Eh      6.75 kcal/mol|
|  sn= 5 | S(rot)=       0.01054926 Eh      6.62 kcal/mol|
|  sn= 6 | S(rot)=       0.01037712 Eh      6.51 kcal/mol|
|  sn= 7 | S(rot)=       0.01023157 Eh      6.42 kcal/mol|
|  sn= 8 | S(rot)=       0.01010550 Eh      6.34 kcal/mol|
|  sn= 9 | S(rot)=       0.00999429 Eh      6.27 kcal/mol|
|  sn=10 | S(rot)=       0.00989481 Eh      6.21 kcal/mol|
|  sn=11 | S(rot)=       0.00980482 Eh      6.15 kcal/mol|
|  sn=12 | S(rot)=       0.00972266 Eh      6.10 kcal/mol|
 --------------------------------------------------------


-------------------
GIBBS FREE ENERGY
-------------------

The Gibbs free energy is G = H - T*S

Total enthalpy                    ...   -351.77821799 Eh 
Total entropy correction          ...     -0.03398708 Eh    -21.33 kcal/mol
-----------------------------------------------------------------------
Final Gibbs free energy         ...   -351.81220507 Eh

For completeness - the Gibbs free energy minus the electronic energy
G-E(el)                           ...      0.02082761 Eh     13.07 kcal/mol



Timings for individual modules:

Sum of individual times         ...     3033.510 sec (=  50.558 min)
GTO integral calculation        ...       24.450 sec (=   0.407 min)   0.8 %
SCF iterations                  ...      559.002 sec (=   9.317 min)  18.4 %
MP2 module                      ...      642.467 sec (=  10.708 min)  21.2 %
Geometry relaxation             ...        4.898 sec (=   0.082 min)   0.2 %
Numerical frequency calculation ...     1802.694 sec (=  30.045 min)  59.4 %
                             ****ORCA TERMINATED NORMALLY****
TOTAL RUN TIME: 0 days 0 hours 50 minutes 46 seconds 681 msec
