
                                 *****************
                                 * O   R   C   A *
                                 *****************

                                            #,                                       
                                            ###                                      
                                            ####                                     
                                            #####                                    
                                            ######                                   
                                           ########,                                 
                                     ,,################,,,,,                         
                               ,,#################################,,                 
                          ,,##########################################,,             
                       ,#########################################, ''#####,          
                    ,#############################################,,   '####,        
                  ,##################################################,,,,####,       
                ,###########''''           ''''###############################       
              ,#####''   ,,,,##########,,,,          '''####'''          '####       
            ,##' ,,,,###########################,,,                        '##       
           ' ,,###''''                  '''############,,,                           
         ,,##''                                '''############,,,,        ,,,,,,###''
      ,#''                                            '''#######################'''  
     '                                                          ''''####''''         
             ,#######,   #######,   ,#######,      ##                                
            ,#'     '#,  ##    ##  ,#'     '#,    #''#        ######   ,####,        
            ##       ##  ##   ,#'  ##            #'  '#       #        #'  '#        
            ##       ##  #######   ##           ,######,      #####,   #    #        
            '#,     ,#'  ##    ##  '#,     ,#' ,#      #,         ##   #,  ,#        
             '#######'   ##     ##  '#######'  #'      '#     #####' # '####'        



                  #######################################################
                  #                        -***-                        #
                  #          Department of theory and spectroscopy      #
                  #    Directorship and core code : Frank Neese         #
                  #        Max Planck Institute fuer Kohlenforschung    #
                  #                Kaiser Wilhelm Platz 1               #
                  #                 D-45470 Muelheim/Ruhr               #
                  #                      Germany                        #
                  #                                                     #
                  #                  All rights reserved                #
                  #                        -***-                        #
                  #######################################################


                         Program Version 5.0.1 -  RELEASE  -


 With contributions from (in alphabetic order):
   Daniel Aravena         : Magnetic Suceptibility
   Michael Atanasov       : Ab Initio Ligand Field Theory (pilot matlab implementation)
   Alexander A. Auer      : GIAO ZORA, VPT2 properties, NMR spectrum
   Ute Becker             : Parallelization
   Giovanni Bistoni       : ED, misc. LED, open-shell LED, HFLD
   Martin Brehm           : Molecular dynamics
   Dmytro Bykov           : SCF Hessian
   Vijay G. Chilkuri      : MRCI spin determinant printing, contributions to CSF-ICE
   Dipayan Datta          : RHF DLPNO-CCSD density
   Achintya Kumar Dutta   : EOM-CC, STEOM-CC
   Dmitry Ganyushin       : Spin-Orbit,Spin-Spin,Magnetic field MRCI
   Miquel Garcia          : C-PCM and meta-GGA Hessian, CC/C-PCM, Gaussian charge scheme
   Yang Guo               : DLPNO-NEVPT2, F12-NEVPT2, CIM, IAO-localization
   Andreas Hansen         : Spin unrestricted coupled pair/coupled cluster methods
   Benjamin Helmich-Paris : MC-RPA, TRAH-SCF, COSX integrals
   Lee Huntington         : MR-EOM, pCC
   Robert Izsak           : Overlap fitted RIJCOSX, COSX-SCS-MP3, EOM
   Marcus Kettner         : VPT2
   Christian Kollmar      : KDIIS, OOCD, Brueckner-CCSD(T), CCSD density, CASPT2, CASPT2-K
   Simone Kossmann        : Meta GGA functionals, TD-DFT gradient, OOMP2, MP2 Hessian
   Martin Krupicka        : Initial AUTO-CI
   Lucas Lang             : DCDCAS
   Marvin Lechner         : AUTO-CI (C++ implementation), FIC-MRCC
   Dagmar Lenk            : GEPOL surface, SMD
   Dimitrios Liakos       : Extrapolation schemes; Compound Job, initial MDCI parallelization
   Dimitrios Manganas     : Further ROCIS development; embedding schemes
   Dimitrios Pantazis     : SARC Basis sets
   Anastasios Papadopoulos: AUTO-CI, single reference methods and gradients
   Taras Petrenko         : DFT Hessian,TD-DFT gradient, ASA, ECA, R-Raman, ABS, FL, XAS/XES, NRVS
   Peter Pinski           : DLPNO-MP2, DLPNO-MP2 Gradient
   Christoph Reimann      : Effective Core Potentials
   Marius Retegan         : Local ZFS, SOC
   Christoph Riplinger    : Optimizer, TS searches, QM/MM, DLPNO-CCSD(T), (RO)-DLPNO pert. Triples
   Tobias Risthaus        : Range-separated hybrids, TD-DFT gradient, RPA, STAB
   Michael Roemelt        : Original ROCIS implementation
   Masaaki Saitow         : Open-shell DLPNO-CCSD energy and density
   Barbara Sandhoefer     : DKH picture change effects
   Avijit Sen             : IP-ROCIS
   Kantharuban Sivalingam : CASSCF convergence, NEVPT2, FIC-MRCI
   Bernardo de Souza      : ESD, SOC TD-DFT
   Georgi Stoychev        : AutoAux, RI-MP2 NMR, DLPNO-MP2 response
   Willem Van den Heuvel  : Paramagnetic NMR
   Boris Wezisla          : Elementary symmetry handling
   Frank Wennmohs         : Technical directorship


 We gratefully acknowledge several colleagues who have allowed us to
 interface, adapt or use parts of their codes:
   Stefan Grimme, W. Hujo, H. Kruse, P. Pracht,  : VdW corrections, initial TS optimization,
                  C. Bannwarth, S. Ehlert          DFT functionals, gCP, sTDA/sTD-DF
   Ed Valeev, F. Pavosevic, A. Kumar             : LibInt (2-el integral package), F12 methods
   Garnet Chan, S. Sharma, J. Yang, R. Olivares  : DMRG
   Ulf Ekstrom                                   : XCFun DFT Library
   Mihaly Kallay                                 : mrcc  (arbitrary order and MRCC methods)
   Jiri Pittner, Ondrej Demel                    : Mk-CCSD
   Frank Weinhold                                : gennbo (NPA and NBO analysis)
   Christopher J. Cramer and Donald G. Truhlar   : smd solvation model
   Lars Goerigk                                  : TD-DFT with DH, B97 family of functionals
   V. Asgeirsson, H. Jonsson                     : NEB implementation
   FAccTs GmbH                                   : IRC, NEB, NEB-TS, DLPNO-Multilevel, CI-OPT
                                                   MM, QMMM, 2- and 3-layer-ONIOM, Crystal-QMMM,
                                                   LR-CPCM, SF, NACMEs, symmetry and pop. for TD-DFT,
                                                   nearIR, NL-DFT gradient (VV10), updates on ESD,
                                                   ML-optimized integration grids
   S Lehtola, MJT Oliveira, MAL Marques          : LibXC Library
   Liviu Ungur et al                             : ANISO software


 Your calculation uses the libint2 library for the computation of 2-el integrals
 For citations please refer to: http://libint.valeyev.net

 Your ORCA version has been built with support for libXC version: 5.1.0
 For citations please refer to: https://tddft.org/programs/libxc/

 This ORCA versions uses:
   CBLAS   interface :  Fast vector & matrix operations
   LAPACKE interface :  Fast linear algebra routines
   SCALAPACK package :  Parallel linear algebra routines
   Shared memory     :  Shared parallel matrices
   BLAS/LAPACK       :  OpenBLAS 0.3.15  USE64BITINT DYNAMIC_ARCH NO_AFFINITY Zen SINGLE_THREADED
        Core in use  :  Zen
   Copyright (c) 2011-2014, The OpenBLAS Project




***************************************
The coordinates will be read from file: input.xyz
***************************************


================================================================================

----- Orbital basis set information -----
Your calculation utilizes the basis: 6-31G(d)
   H-He, Li-Ne : W. J. Hehre, R. Ditchfield and J.A. Pople, J. Chem. Phys. 56, 2257 (1972).
                 Note: He and Ne are unpublished basis sets taken from the Gaussian program.
                 Note: Li and B from J. D. Dill and J. A. Pople, J. Chem. Phys. 62, 2921 (1975).
   Na - Ar     : M. M. Francl, W. J. Pietro, W. J. Hehre, J. S. Binkley, M. S. Gordon, 
                 D. J. DeFrees and J. A. Pople, J. Chem. Phys. 77, 3654 (1982).
   K - Zn      : V. A. Rassolov, J. A. Pople, M. A. Ratner, and T. L. Windus, J. Chem. Phys. 109, 1223 (1998).

================================================================================
                                        WARNINGS
                       Please study these warnings very carefully!
================================================================================


WARNING: Geometry Optimization
  ===> : Switching off AutoStart
         For restart on a previous wavefunction, please use MOREAD

WARNING: Post HF methods need fully converged wavefunctions
  ===> : Setting SCFConvForced true
         You can overwrite this default with %scf ConvForced false 


INFO   : the flag for use of the SHARK integral package has been found!

================================================================================
                                       INPUT FILE
================================================================================
NAME = input.orc
|  1> ! MP2 UHF 6-31G(d) OPTTS NumFreq NoFrozenCore VERYTIGHTSCF VERYTIGHTOPT
|  2> %geom
|  3> MaxIter 200
|  4> end
|  5> 
|  6> * XYZfile 0 2 input.xyz
|  7> 
|  8>                          ****END OF INPUT****
================================================================================

                       *****************************
                       * Geometry Optimization Run *
                       *****************************

Geometry optimization settings:
Update method            Update   .... Bofill
Choice of coordinates    CoordSys .... Z-matrix Internals
Initial Hessian          InHess   .... Almoef's Model

Convergence Tolerances:
Energy Change            TolE     ....  2.0000e-07 Eh
Max. Gradient            TolMAXG  ....  3.0000e-05 Eh/bohr
RMS Gradient             TolRMSG  ....  8.0000e-06 Eh/bohr
Max. Displacement        TolMAXD  ....  2.0000e-04 bohr
RMS Displacement         TolRMSD  ....  1.0000e-04 bohr
Strict Convergence                ....  False
------------------------------------------------------------------------------
                        ORCA OPTIMIZATION COORDINATE SETUP
------------------------------------------------------------------------------

The optimization will be done in new redundant internal coordinates
Making redundant internal coordinates   ...  (new redundants) done
Following TS mode number                ...     0
Evaluating the initial hessian          ...  (Almloef) done
Evaluating the coordinates              ...  done
Calculating the B-matrix                .... done
Calculating the G-matrix                .... done
Diagonalizing the G-matrix              .... done
The first mode is                       ....   10
The number of degrees of freedom        ....   18

    -----------------------------------------------------------------
                    Redundant Internal Coordinates


    -----------------------------------------------------------------
         Definition                    Initial Value    Approx d2E/dq
    -----------------------------------------------------------------
      1. B(C   1,C   0)                  1.5083         0.404559   
      2. B(F   2,C   1)                  1.6497         0.200299   
      3. B(O   3,C   1)                  1.1833         1.195918   
      4. B(H   4,C   0)                  1.0909         0.358889   
      5. B(H   5,C   0)                  1.0918         0.357697   
      6. B(H   6,C   0)                  1.0870         0.364060   
      7. B(H   7,C   1)                  1.2497         0.200268   
      8. A(C   1,C   0,H   5)          106.9412         0.328238   
      9. A(H   4,C   0,H   6)          110.9176         0.291185   
     10. A(C   1,C   0,H   4)          108.5083         0.328419   
     11. A(H   4,C   0,H   5)          108.9597         0.290380   
     12. A(H   5,C   0,H   6)          110.2658         0.291033   
     13. A(C   1,C   0,H   6)          111.1327         0.329195   
     14. A(O   3,C   1,H   7)          114.1716         0.354931   
     15. A(F   2,C   1,O   3)          118.6549         0.392251   
     16. A(F   2,C   1,H   7)           60.6664         0.265479   
     17. A(C   0,C   1,H   7)          110.0826         0.298805   
     18. A(C   0,C   1,O   3)          128.9742         0.449516   
     19. A(C   0,C   1,F   2)          104.3280         0.328249   
     20. D(F   2,C   1,C   0,H   5)     91.5496         0.012976   
     21. D(F   2,C   1,C   0,H   6)    -28.8437         0.012976   
     22. D(O   3,C   1,C   0,H   4)     61.4592         0.012976   
     23. D(O   3,C   1,C   0,H   5)    -55.9367         0.012976   
     24. D(O   3,C   1,C   0,H   6)   -176.3301         0.012976   
     25. D(H   7,C   1,C   0,H   4)    -87.4760         0.012976   
     26. D(H   7,C   1,C   0,H   5)    155.1281         0.012976   
     27. D(H   7,C   1,C   0,H   6)     34.7347         0.012976   
     28. D(F   2,C   1,C   0,H   4)   -151.0544         0.012976   
    -----------------------------------------------------------------

Number of atoms                         .... 8
Number of degrees of freedom            .... 28

         *************************************************************
         *                GEOMETRY OPTIMIZATION CYCLE   1            *
         *************************************************************
---------------------------------
CARTESIAN COORDINATES (ANGSTROEM)
---------------------------------
  C      1.101601   -0.228786   -0.007323
  C      0.594620    0.042272    1.387130
  F      1.758288   -0.585285    2.373773
  O     -0.521224    0.080798    1.778963
  H      0.718494    0.546838   -0.671956
  H      0.690749   -1.192939   -0.313404
  H      2.187984   -0.257965   -0.030577
  H      1.373608    0.815944    1.984114

----------------------------
CARTESIAN COORDINATES (A.U.)
----------------------------
  NO LB      ZA    FRAG     MASS         X           Y           Z
   0 C     6.0000    0    12.011    2.081724   -0.432342   -0.013838
   1 C     6.0000    0    12.011    1.123669    0.079882    2.621295
   2 F     9.0000    0    18.998    3.322683   -1.106027    4.485780
   3 O     8.0000    0    15.999   -0.984970    0.152685    3.361753
   4 H     1.0000    0     1.008    1.357757    1.033374   -1.269812
   5 H     1.0000    0     1.008    1.305327   -2.254328   -0.592247
   6 H     1.0000    0     1.008    4.134690   -0.487484   -0.057781
   7 H     1.0000    0     1.008    2.595743    1.541910    3.749433

--------------------------------
INTERNAL COORDINATES (ANGSTROEM)
--------------------------------
 C      0   0   0     0.000000000000     0.00000000     0.00000000
 C      1   0   0     1.508310187296     0.00000000     0.00000000
 F      2   1   0     1.649670882509   104.32800574     0.00000000
 O      2   1   3     1.183269099299   128.97423937   212.51367269
 H      1   2   3     1.090917202257   108.50829802   208.94555360
 H      1   2   3     1.091822539032   106.94117097    91.54962682
 H      1   2   3     1.087023111042   111.13265840   331.15627271
 H      2   1   3     1.249712357526   110.08257816    63.57846304

---------------------------
INTERNAL COORDINATES (A.U.)
---------------------------
 C      0   0   0     0.000000000000     0.00000000     0.00000000
 C      1   0   0     2.850293178993     0.00000000     0.00000000
 F      2   1   0     3.117426179047   104.32800574     0.00000000
 O      2   1   3     2.236054540407   128.97423937   212.51367269
 H      1   2   3     2.061534747049   108.50829802   208.94555360
 H      1   2   3     2.063245585613   106.94117097    91.54962682
 H      1   2   3     2.054175981113   111.13265840   331.15627271
 H      2   1   3     2.361614101901   110.08257816    63.57846304

---------------------
BASIS SET INFORMATION
---------------------
There are 4 groups of distinct atoms

 Group   1 Type C   : 10s4p1d contracted to 3s2p1d pattern {631/31/1}
 Group   2 Type F   : 10s4p1d contracted to 3s2p1d pattern {631/31/1}
 Group   3 Type O   : 10s4p1d contracted to 3s2p1d pattern {631/31/1}
 Group   4 Type H   : 4s contracted to 2s pattern {31}

Atom   0C    basis set group =>   1
Atom   1C    basis set group =>   1
Atom   2F    basis set group =>   2
Atom   3O    basis set group =>   3
Atom   4H    basis set group =>   4
Atom   5H    basis set group =>   4
Atom   6H    basis set group =>   4
Atom   7H    basis set group =>   4
------------------------------------------------------------------------------
                           ORCA GTO INTEGRAL CALCULATION
------------------------------------------------------------------------------
------------------------------------------------------------------------------
                   ___                                                        
                  /   \      - P O W E R E D   B Y -                         
                 /     \                                                     
                 |  |  |   _    _      __       _____    __    __             
                 |  |  |  | |  | |    /  \     |  _  \  |  |  /  |          
                  \  \/   | |  | |   /    \    | | | |  |  | /  /          
                 / \  \   | |__| |  /  /\  \   | |_| |  |  |/  /          
                |  |  |   |  __  | /  /__\  \  |    /   |      \           
                |  |  |   | |  | | |   __   |  |    \   |  |\   \          
                \     /   | |  | | |  |  |  |  | |\  \  |  | \   \       
                 \___/    |_|  |_| |__|  |__|  |_| \__\ |__|  \__/        
                                                                              
                      - O R C A' S   B I G   F R I E N D -                    
                                      &                                       
                       - I N T E G R A L  F E E D E R -                       
                                                                              
 v1 FN, 2020, v2 2021                                                         
------------------------------------------------------------------------------


Reading SHARK input file input.SHARKINP.tmp ... ok
----------------------
SHARK INTEGRAL PACKAGE
----------------------

Number of atoms                             ...      8
Number of basis functions                   ...     64
Number of shells                            ...     32
Maximum angular momentum                    ...      2
Integral batch strategy                     ... SHARK/LIBINT Hybrid
RI-J (if used) integral strategy            ... SPLIT-RIJ (Revised 2003 algorithm where possible)
Printlevel                                  ...      1
Contraction scheme used                     ... SEGMENTED contraction
Coulomb Range Separation                    ... NOT USED
Exchange Range Separation                   ... NOT USED
Finite Nucleus Model                        ... NOT USED
Auxiliary Coulomb fitting basis             ... NOT available
Auxiliary J/K fitting basis                 ... NOT available
Auxiliary Correlation fitting basis         ... NOT available
Auxiliary 'external' fitting basis          ... NOT available
Integral threshold                          ...     1.000000e-12
Primitive cut-off                           ...     1.000000e-14
Primitive pair pre-selection threshold      ...     1.000000e-14

Calculating pre-screening integrals         ... done (  0.0 sec) Dimension = 32
Organizing shell pair data                  ... done (  0.1 sec)
Shell pair information
Total number of shell pairs                 ...       528
Shell pairs after pre-screening             ...       525
Total number of primitive shell pairs       ...      3022
Primitive shell pairs kept                  ...      2348
          la=0 lb=0:    207 shell pairs
          la=1 lb=0:    160 shell pairs
          la=1 lb=1:     36 shell pairs
          la=2 lb=0:     80 shell pairs
          la=2 lb=1:     32 shell pairs
          la=2 lb=2:     10 shell pairs

Calculating one electron integrals          ... done (  0.0 sec)
Calculating Nuclear repulsion               ... done (  0.1 sec) ENN=    122.039881595737 Eh

SHARK setup successfully completed in   0.3 seconds

Maximum memory used throughout the entire GTOINT-calculation: 7.5 MB
-------------------------------------------------------------------------------
                                 ORCA SCF
-------------------------------------------------------------------------------

------------
SCF SETTINGS
------------
Hamiltonian:
 Ab initio Hamiltonian  Method          .... Hartree-Fock(GTOs)


General Settings:
 Integral files         IntName         .... input
 Hartree-Fock type      HFTyp           .... UHF
 Total Charge           Charge          ....    0
 Multiplicity           Mult            ....    2
 Number of Electrons    NEL             ....   33
 Basis Dimension        Dim             ....   64
 Nuclear Repulsion      ENuc            ....    122.0398815957 Eh

Convergence Acceleration:
 DIIS                   CNVDIIS         .... on
   Start iteration      DIISMaxIt       ....    12
   Startup error        DIISStart       ....  0.200000
   # of expansion vecs  DIISMaxEq       ....     5
   Bias factor          DIISBfac        ....   1.050
   Max. coefficient     DIISMaxC        ....  10.000
 Trust-Rad. Augm. Hess. CNVTRAH         .... auto
   Auto Start mean grad. ratio tolernc. ....  1.125000
   Auto Start start iteration           ....    20
   Auto Start num. interpolation iter.  ....    10
   Max. Number of Micro iterations      ....    16
   Max. Number of Macro iterations      .... Maxiter - #DIIS iter
   Number of Davidson start vectors     ....     2
   Converg. threshold I  (grad. norm)   ....   2.000e-06
   Converg. threshold II (energy diff.) ....   1.000e-09
   Grad. Scal. Fac. for Micro threshold ....   0.100
   Minimum threshold for Micro iter.    ....   0.010
   NR start threshold (gradient norm)   ....   0.001
   Initial trust radius                 ....   0.400
   Minimum AH scaling param. (alpha)    ....   1.000
   Maximum AH scaling param. (alpha)    .... 1000.000
   Orbital update algorithm             .... Taylor
   White noise on init. David. guess    .... on
   Maximum white noise                  ....   0.010
   Quad. conv. algorithm                .... NR
 SOSCF                  CNVSOSCF        .... off
 Level Shifting         CNVShift        .... on
   Level shift para.    LevelShift      ....    0.2500
   Turn off err/grad.   ShiftErr        ....    0.0010
 Zerner damping         CNVZerner       .... off
 Static damping         CNVDamp         .... on
   Fraction old density DampFac         ....    0.7000
   Max. Damping (<1)    DampMax         ....    0.9800
   Min. Damping (>=0)   DampMin         ....    0.0000
   Turn off err/grad.   DampErr         ....    0.1000
 Fernandez-Rico         CNVRico         .... off

SCF Procedure:
 Maximum # iterations   MaxIter         ....   125
 SCF integral mode      SCFMode         .... Direct
   Integral package                     .... SHARK and LIBINT hybrid scheme
 Reset frequency        DirectResetFreq ....    20
 Integral Threshold     Thresh          ....  1.000e-12 Eh
 Primitive CutOff       TCut            ....  1.000e-14 Eh

Convergence Tolerance:
 Convergence Check Mode ConvCheckMode   .... Total+1el-Energy
 Convergence forced     ConvForced      .... 1
 Energy Change          TolE            ....  1.000e-09 Eh
 1-El. energy change                    ....  1.000e-06 Eh
 DIIS Error             TolErr          ....  1.000e-08


Diagonalization of the overlap matrix:
Smallest eigenvalue                        ... 6.860e-03
Time for diagonalization                   ...    0.001 sec
Threshold for overlap eigenvalues          ... 1.000e-08
Number of eigenvalues below threshold      ... 0
Time for construction of square roots      ...    0.021 sec
Total time needed                          ...    0.022 sec

Time for model grid setup =    0.107 sec

------------------------------
INITIAL GUESS: MODEL POTENTIAL
------------------------------
Loading Hartree-Fock densities                     ... done
Calculating cut-offs                               ... done
Initializing the effective Hamiltonian             ... done
Setting up the integral package (SHARK)            ... done
Starting the Coulomb interaction                   ... done (   0.0 sec)
Reading the grid                                   ... done
Mapping shells                                     ... done
Starting the XC term evaluation                    ... done (   0.0 sec)
Transforming the Hamiltonian                       ... done (   0.0 sec)
Diagonalizing the Hamiltonian                      ... done (   0.0 sec)
Back transforming the eigenvectors                 ... done (   0.0 sec)
Now organizing SCF variables                       ... done
                      ------------------
                      INITIAL GUESS DONE (   0.2 sec)
                      ------------------
--------------
SCF ITERATIONS
--------------
ITER       Energy         Delta-E        Max-DP      RMS-DP      [F,P]     Damp
               ***  Starting incremental Fock matrix formation  ***
  0   -252.0593702692   0.000000000000 0.03207877  0.00144243  0.2221862 0.7000
  1   -252.1131574380  -0.053787168750 0.02452384  0.00108489  0.1335237 0.7000
                               ***Turning on DIIS***
  2   -252.1454444040  -0.032286966020 0.05363873  0.00236494  0.0734916 0.0000
  3   -251.9769935444   0.168450859632 0.01792507  0.00079724  0.0472873 0.0000
  4   -252.2287560192  -0.251762474789 0.01271369  0.00040683  0.0117888 0.0000
  5   -252.2198392023   0.008916816910 0.00815521  0.00029995  0.0061199 0.0000
  6   -252.2196064741   0.000232728142 0.01090428  0.00034468  0.0057052 0.0000
  7   -252.2249443268  -0.005337852714 0.01173842  0.00036445  0.0049670 0.0000
  8   -252.2259647645  -0.001020437686 0.01541705  0.00047532  0.0040537 0.0000
  9   -252.2238228660   0.002141898538 0.01370514  0.00043408  0.0029262 0.0000
 10   -252.2253867296  -0.001563863652 0.00588057  0.00019697  0.0021530 0.0000
 11   -252.2253145873   0.000072142304 0.00548674  0.00019434  0.0013633 0.0000
 12   -252.2222544536   0.003060133727 0.00216849  0.00009984  0.0009549 0.0000
 13   -252.2236497234  -0.001395269839 0.00088916  0.00004195  0.0003823 0.0000
 14   -252.2231069281   0.000542795343 0.00065000  0.00004069  0.0003307 0.0000
 15   -252.2229936699   0.000113258187 0.00069452  0.00004141  0.0003276 0.0000
 16   -252.2228879409   0.000105729041 0.00089649  0.00004690  0.0003440 0.0000
 17   -252.2225905669   0.000297373966 0.00123656  0.00005855  0.0003192 0.0000
 18   -252.2226111550  -0.000020588043 0.00167963  0.00007435  0.0002650 0.0000
 19   -252.2231316213  -0.000520466354 0.00106344  0.00004377  0.0001654 0.0000
               *** Restarting incremental Fock matrix formation ***
                                   *** Resetting DIIS ***
 20   -252.2236481766  -0.000516555337 0.00007130  0.00000386  0.0000860 0.0000
 21   -252.2236597063  -0.000011529664 0.00007585  0.00000387  0.0000736 0.0000
 22   -252.2236418931   0.000017813208 0.00020626  0.00001055  0.0000571 0.0000
 23   -252.2236383068   0.000003586274 0.00009835  0.00000444  0.0000216 0.0000
 24   -252.2236357341   0.000002572752 0.00004556  0.00000195  0.0000119 0.0000
 25   -252.2236185446   0.000017189464 0.00006174  0.00000287  0.0000102 0.0000
 26   -252.2236289130  -0.000010368380 0.00003180  0.00000187  0.0000083 0.0000
 27   -252.2236351861  -0.000006273150 0.00002049  0.00000117  0.0000092 0.0000
 28   -252.2236317449   0.000003441242 0.00002948  0.00000160  0.0000089 0.0000
 29   -252.2236223216   0.000009423271 0.00003843  0.00000195  0.0000079 0.0000
 30   -252.2236403186  -0.000017996982 0.00001773  0.00000078  0.0000053 0.0000
 31   -252.2236471567  -0.000006838132 0.00000916  0.00000029  0.0000032 0.0000
 32   -252.2236515827  -0.000004425909 0.00000398  0.00000025  0.0000019 0.0000
 33   -252.2236503201   0.000001262512 0.00000373  0.00000015  0.0000010 0.0000
 34   -252.2236503288  -0.000000008671 0.00000223  0.00000011  0.0000007 0.0000
 35   -252.2236491101   0.000001218716 0.00000132  0.00000006  0.0000004 0.0000
 36   -252.2236488086   0.000000301530 0.00000134  0.00000006  0.0000005 0.0000
 37   -252.2236484156   0.000000393006 0.00000117  0.00000007  0.0000004 0.0000
 38   -252.2236480165   0.000000399030 0.00000119  0.00000008  0.0000004 0.0000
 39   -252.2236479847   0.000000031820 0.00000140  0.00000008  0.0000005 0.0000
               *** Restarting incremental Fock matrix formation ***
                                   *** Resetting DIIS ***
 40   -252.2236488483  -0.000000863598 0.00000037  0.00000001  0.0000004 0.0000
 41   -252.2236488757  -0.000000027408 0.00000039  0.00000001  0.0000004 0.0000

 WARNING: the maximum gradient error descreased on average only by a factor   1.1
          during the last 20 iterations

                      *** Initiating the TRAH-SCF procedure ***

 --------------------------------------------------------------------------------------------
   Iter.        energy            ||Error||_2        Shift      TRadius  Mac/Mic        Rej.
 --------------------------------------------------------------------------------------------
    0       -252.223648848314     5.220735e-07                     0.400 (TRAH MAcro)   No

               *****************************************************
               *                     SUCCESS                       *
               *           SCF CONVERGED AFTER  43 CYCLES          *
               *****************************************************


----------------
TOTAL SCF ENERGY
----------------

Total Energy       :         -252.22364885 Eh           -6863.35441 eV

Components:
Nuclear Repulsion  :          122.03988160 Eh            3320.87401 eV
Electronic Energy  :         -374.26353044 Eh          -10184.22842 eV
One Electron Energy:         -589.53327644 Eh          -16042.01601 eV
Two Electron Energy:          215.26974600 Eh            5857.78759 eV

Virial components:
Potential Energy   :         -504.37924952 Eh          -13724.85714 eV
Kinetic Energy     :          252.15560067 Eh            6861.50273 eV
Virial Ratio       :            2.00026987


---------------
SCF CONVERGENCE
---------------

  Last Energy change         ...   -2.5222e+02  Tolerance :   1.0000e-09
  Last Orbital Gradient      ...    5.2207e-07  Tolerance :   2.0000e-06
  Last Orbital Rotation      ...    0.0000e+00

             **** THE GBW FILE WAS UPDATED (input.gbw) ****
             **** DENSITY input.scfp WAS UPDATED ****
             **** ENERGY FILE WAS UPDATED (input.en.tmp) ****
----------------------
UHF SPIN CONTAMINATION
----------------------

Expectation value of <S**2>     :     0.828537
Ideal value S*(S+1) for S=0.5   :     0.750000
Deviation                       :     0.078537

             **** THE GBW FILE WAS UPDATED (input.gbw) ****
             **** DENSITY input.scfp WAS UPDATED ****
----------------
ORBITAL ENERGIES
----------------
                 SPIN UP ORBITALS
  NO   OCC          E(Eh)            E(eV) 
   0   1.0000     -26.253790      -714.4019 
   1   1.0000     -20.647602      -561.8498 
   2   1.0000     -11.391193      -309.9701 
   3   1.0000     -11.260358      -306.4099 
   4   1.0000      -1.550280       -42.1853 
   5   1.0000      -1.491419       -40.5836 
   6   1.0000      -1.045582       -28.4517 
   7   1.0000      -0.856849       -23.3161 
   8   1.0000      -0.751164       -20.4402 
   9   1.0000      -0.708557       -19.2808 
  10   1.0000      -0.680560       -18.5190 
  11   1.0000      -0.632614       -17.2143 
  12   1.0000      -0.605155       -16.4671 
  13   1.0000      -0.591194       -16.0872 
  14   1.0000      -0.567251       -15.4357 
  15   1.0000      -0.526329       -14.3221 
  16   1.0000      -0.443237       -12.0611 
  17   0.0000       0.206421         5.6170 
  18   0.0000       0.236839         6.4447 
  19   0.0000       0.250424         6.8144 
  20   0.0000       0.303642         8.2625 
  21   0.0000       0.318145         8.6572 
  22   0.0000       0.405932        11.0460 
  23   0.0000       0.432780        11.7765 
  24   0.0000       0.717094        19.5131 
  25   0.0000       0.756093        20.5743 
  26   0.0000       0.769931        20.9509 
  27   0.0000       0.813672        22.1411 
  28   0.0000       0.894934        24.3524 
  29   0.0000       0.900531        24.5047 
  30   0.0000       0.979891        26.6642 
  31   0.0000       1.062193        28.9037 
  32   0.0000       1.105427        30.0802 
  33   0.0000       1.126466        30.6527 
  34   0.0000       1.177729        32.0476 
  35   0.0000       1.199499        32.6400 
  36   0.0000       1.231569        33.5127 
  37   0.0000       1.306024        35.5387 
  38   0.0000       1.434781        39.0424 
  39   0.0000       1.592508        43.3343 
  40   0.0000       1.609324        43.7919 
  41   0.0000       1.640946        44.6524 
  42   0.0000       1.691640        46.0319 
  43   0.0000       1.761864        47.9428 
  44   0.0000       1.870145        50.8892 
  45   0.0000       1.965511        53.4843 
  46   0.0000       2.013086        54.7789 
  47   0.0000       2.039832        55.5066 
  48   0.0000       2.071806        56.3767 
  49   0.0000       2.167543        58.9818 
  50   0.0000       2.191798        59.6418 
  51   0.0000       2.213407        60.2299 
  52   0.0000       2.239017        60.9268 
  53   0.0000       2.264619        61.6234 
  54   0.0000       2.399608        65.2967 
  55   0.0000       2.473465        67.3064 
  56   0.0000       2.522807        68.6491 
  57   0.0000       2.532620        68.9161 
  58   0.0000       2.732926        74.3667 
  59   0.0000       2.853645        77.6516 
  60   0.0000       3.006351        81.8070 
  61   0.0000       3.101699        84.4015 
  62   0.0000       3.305521        89.9478 
  63   0.0000       3.370181        91.7073 

                 SPIN DOWN ORBITALS
  NO   OCC          E(Eh)            E(eV) 
   0   1.0000     -26.236942      -713.9435 
   1   1.0000     -20.619665      -561.0896 
   2   1.0000     -11.398541      -310.1701 
   3   1.0000     -11.258004      -306.3459 
   4   1.0000      -1.501621       -40.8612 
   5   1.0000      -1.425039       -38.7773 
   6   1.0000      -1.033373       -28.1195 
   7   1.0000      -0.800823       -21.7915 
   8   1.0000      -0.696123       -18.9425 
   9   1.0000      -0.670623       -18.2486 
  10   1.0000      -0.659437       -17.9442 
  11   1.0000      -0.599924       -16.3248 
  12   1.0000      -0.584098       -15.8941 
  13   1.0000      -0.556085       -15.1318 
  14   1.0000      -0.505104       -13.7446 
  15   1.0000      -0.445247       -12.1158 
  16   0.0000       0.036346         0.9890 
  17   0.0000       0.228066         6.2060 
  18   0.0000       0.245027         6.6675 
  19   0.0000       0.265915         7.2359 
  20   0.0000       0.310516         8.4496 
  21   0.0000       0.326396         8.8817 
  22   0.0000       0.410705        11.1758 
  23   0.0000       0.443591        12.0707 
  24   0.0000       0.717364        19.5205 
  25   0.0000       0.765557        20.8319 
  26   0.0000       0.779915        21.2226 
  27   0.0000       0.810407        22.0523 
  28   0.0000       0.896040        24.3825 
  29   0.0000       0.930822        25.3290 
  30   0.0000       1.018733        27.7211 
  31   0.0000       1.069907        29.1137 
  32   0.0000       1.110005        30.2048 
  33   0.0000       1.132939        30.8288 
  34   0.0000       1.180774        32.1305 
  35   0.0000       1.204474        32.7754 
  36   0.0000       1.286993        35.0209 
  37   0.0000       1.356628        36.9157 
  38   0.0000       1.443983        39.2928 
  39   0.0000       1.597621        43.4735 
  40   0.0000       1.623658        44.1820 
  41   0.0000       1.670081        45.4452 
  42   0.0000       1.701602        46.3029 
  43   0.0000       1.780304        48.4445 
  44   0.0000       1.888074        51.3771 
  45   0.0000       1.986101        54.0445 
  46   0.0000       2.037360        55.4394 
  47   0.0000       2.075013        56.4640 
  48   0.0000       2.101880        57.1951 
  49   0.0000       2.177233        59.2455 
  50   0.0000       2.203579        59.9624 
  51   0.0000       2.223983        60.5177 
  52   0.0000       2.254166        61.3390 
  53   0.0000       2.279998        62.0419 
  54   0.0000       2.410157        65.5837 
  55   0.0000       2.484174        67.5978 
  56   0.0000       2.527314        68.7717 
  57   0.0000       2.541986        69.1709 
  58   0.0000       2.737983        74.5043 
  59   0.0000       2.863834        77.9289 
  60   0.0000       3.016196        82.0749 
  61   0.0000       3.115515        84.7775 
  62   0.0000       3.320488        90.3551 
  63   0.0000       3.374172        91.8159 

                    ********************************
                    * MULLIKEN POPULATION ANALYSIS *
                    ********************************

--------------------------------------------
MULLIKEN ATOMIC CHARGES AND SPIN POPULATIONS
--------------------------------------------
   0 C :   -0.541173    0.067751
   1 C :    0.430578   -0.270058
   2 F :   -0.513008    0.208107
   3 O :   -0.329216    0.628031
   4 H :    0.205482   -0.011060
   5 H :    0.213874    0.005159
   6 H :    0.221673   -0.005884
   7 H :    0.311791    0.377954
Sum of atomic charges         :    0.0000000
Sum of atomic spin populations:    1.0000000

-----------------------------------------------------
MULLIKEN REDUCED ORBITAL CHARGES AND SPIN POPULATIONS
-----------------------------------------------------
CHARGE
  0 C s       :     3.341440  s :     3.341440
      pz      :     0.902692  p :     3.153603
      px      :     1.128298
      py      :     1.122612
      dz2     :     0.011350  d :     0.046131
      dxz     :     0.006313
      dyz     :     0.009597
      dx2y2   :     0.012431
      dxy     :     0.006440
  1 C s       :     3.125778  s :     3.125778
      pz      :     0.773014  p :     2.327681
      px      :     0.705306
      py      :     0.849361
      dz2     :     0.021295  d :     0.115962
      dxz     :     0.039558
      dyz     :     0.010259
      dx2y2   :     0.019743
      dxy     :     0.025107
  2 F s       :     3.997095  s :     3.997095
      pz      :     1.858298  p :     5.505851
      px      :     1.795992
      py      :     1.851561
      dz2     :     0.001153  d :     0.010062
      dxz     :     0.003257
      dyz     :     0.001668
      dx2y2   :     0.001966
      dxy     :     0.002018
  3 O s       :     3.873366  s :     3.873366
      pz      :     1.707903  p :     4.421821
      px      :     1.398282
      py      :     1.315636
      dz2     :     0.004388  d :     0.034029
      dxz     :     0.008694
      dyz     :     0.001455
      dx2y2   :     0.007928
      dxy     :     0.011565
  4 H s       :     0.794518  s :     0.794518
  5 H s       :     0.786126  s :     0.786126
  6 H s       :     0.778327  s :     0.778327
  7 H s       :     0.688209  s :     0.688209

SPIN
  0 C s       :     0.008466  s :     0.008466
      pz      :     0.044369  p :     0.060209
      px      :     0.009920
      py      :     0.005920
      dz2     :     0.000111  d :    -0.000925
      dxz     :     0.000145
      dyz     :    -0.001082
      dx2y2   :    -0.000192
      dxy     :     0.000094
  1 C s       :    -0.030613  s :    -0.030613
      pz      :    -0.040470  p :    -0.255603
      px      :    -0.021001
      py      :    -0.194132
      dz2     :     0.001984  d :     0.016158
      dxz     :    -0.000159
      dyz     :     0.001222
      dx2y2   :     0.000500
      dxy     :     0.012612
  2 F s       :    -0.000045  s :    -0.000045
      pz      :     0.033514  p :     0.209485
      px      :     0.051285
      py      :     0.124686
      dz2     :     0.000107  d :    -0.001332
      dxz     :    -0.000496
      dyz     :    -0.000511
      dx2y2   :     0.000168
      dxy     :    -0.000599
  3 O s       :     0.025237  s :     0.025237
      pz      :     0.071587  p :     0.607660
      px      :     0.046142
      py      :     0.489931
      dz2     :    -0.000390  d :    -0.004866
      dxz     :    -0.000308
      dyz     :    -0.000340
      dx2y2   :    -0.000067
      dxy     :    -0.003760
  4 H s       :    -0.011060  s :    -0.011060
  5 H s       :     0.005159  s :     0.005159
  6 H s       :    -0.005884  s :    -0.005884
  7 H s       :     0.377954  s :     0.377954


                     *******************************
                     * LOEWDIN POPULATION ANALYSIS *
                     *******************************

-------------------------------------------
LOEWDIN ATOMIC CHARGES AND SPIN POPULATIONS
-------------------------------------------
   0 C :   -0.369236    0.048718
   1 C :    0.131786   -0.150723
   2 F :   -0.399137    0.226200
   3 O :   -0.092404    0.568450
   4 H :    0.152695   -0.008114
   5 H :    0.155536    0.002066
   6 H :    0.158892   -0.003895
   7 H :    0.261868    0.317298

----------------------------------------------------
LOEWDIN REDUCED ORBITAL CHARGES AND SPIN POPULATIONS
----------------------------------------------------
CHARGE
  0 C s       :     2.980685  s :     2.980685
      pz      :     1.028850  p :     3.311582
      px      :     1.138811
      py      :     1.143921
      dz2     :     0.021451  d :     0.076969
      dxz     :     0.011438
      dyz     :     0.016967
      dx2y2   :     0.018556
      dxy     :     0.008558
  1 C s       :     2.905231  s :     2.905231
      pz      :     0.906778  p :     2.709041
      px      :     0.923654
      py      :     0.878609
      dz2     :     0.045564  d :     0.253942
      dxz     :     0.088442
      dyz     :     0.019101
      dx2y2   :     0.047226
      dxy     :     0.053608
  2 F s       :     3.870516  s :     3.870516
      pz      :     1.858536  p :     5.509760
      px      :     1.797742
      py      :     1.853482
      dz2     :     0.002299  d :     0.018861
      dxz     :     0.005254
      dyz     :     0.003540
      dx2y2   :     0.003567
      dxy     :     0.004200
  3 O s       :     3.549492  s :     3.549492
      pz      :     1.678626  p :     4.479653
      px      :     1.499805
      py      :     1.301222
      dz2     :     0.007928  d :     0.063259
      dxz     :     0.016540
      dyz     :     0.002077
      dx2y2   :     0.018847
      dxy     :     0.017868
  4 H s       :     0.847305  s :     0.847305
  5 H s       :     0.844464  s :     0.844464
  6 H s       :     0.841108  s :     0.841108
  7 H s       :     0.738132  s :     0.738132

SPIN
  0 C s       :     0.008704  s :     0.008704
      pz      :     0.033045  p :     0.043093
      px      :     0.006045
      py      :     0.004003
      dz2     :    -0.000650  d :    -0.003079
      dxz     :    -0.000293
      dyz     :    -0.001744
      dx2y2   :    -0.000423
      dxy     :     0.000031
  1 C s       :    -0.021054  s :    -0.021054
      pz      :    -0.016966  p :    -0.171105
      px      :    -0.015378
      py      :    -0.138760
      dz2     :     0.005190  d :     0.041436
      dxz     :     0.001523
      dyz     :     0.002693
      dx2y2   :     0.001656
      dxy     :     0.030374
  2 F s       :     0.010348  s :     0.010348
      pz      :     0.031436  p :     0.215154
      px      :     0.047700
      py      :     0.136018
      dz2     :     0.000486  d :     0.000698
      dxz     :    -0.000698
      dyz     :     0.000123
      dx2y2   :     0.000912
      dxy     :    -0.000125
  3 O s       :     0.014115  s :     0.014115
      pz      :     0.067255  p :     0.562380
      px      :     0.036244
      py      :     0.458880
      dz2     :    -0.000476  d :    -0.008044
      dxz     :    -0.000586
      dyz     :    -0.000766
      dx2y2   :    -0.000318
      dxy     :    -0.005898
  4 H s       :    -0.008114  s :    -0.008114
  5 H s       :     0.002066  s :     0.002066
  6 H s       :    -0.003895  s :    -0.003895
  7 H s       :     0.317298  s :     0.317298


                      *****************************
                      * MAYER POPULATION ANALYSIS *
                      *****************************

  NA   - Mulliken gross atomic population
  ZA   - Total nuclear charge
  QA   - Mulliken gross atomic charge
  VA   - Mayer's total valence
  BVA  - Mayer's bonded valence
  FA   - Mayer's free valence

  ATOM       NA         ZA         QA         VA         BVA        FA
  0 C      6.5412     6.0000    -0.5412     3.7239     3.7198     0.0040
  1 C      5.5694     6.0000     0.4306     3.6653     3.6117     0.0536
  2 F      9.5130     9.0000    -0.5130     0.7435     0.6847     0.0588
  3 O      8.3292     8.0000    -0.3292     2.1122     1.7544     0.3578
  4 H      0.7945     1.0000     0.2055     0.9179     0.9177     0.0001
  5 H      0.7861     1.0000     0.2139     0.9177     0.9176     0.0001
  6 H      0.7783     1.0000     0.2217     0.9209     0.9208     0.0000
  7 H      0.6882     1.0000     0.3118     0.8768     0.7330     0.1438

  Mayer bond orders larger than 0.100000
B(  0-C ,  1-C ) :   0.9146 B(  0-C ,  4-H ) :   0.9329 B(  0-C ,  5-H ) :   0.9373 
B(  0-C ,  6-H ) :   0.9357 B(  1-C ,  2-F ) :   0.4775 B(  1-C ,  3-O ) :   1.6399 
B(  1-C ,  7-H ) :   0.6091 B(  2-F ,  7-H ) :   0.1055 

-------
TIMINGS
-------

Total SCF time: 0 days 0 hours 0 min 11 sec 

Total time                  ....      11.477 sec
Sum of individual times     ....      10.980 sec  ( 95.7%)

Fock matrix formation       ....      10.353 sec  ( 90.2%)
Diagonalization             ....       0.107 sec  (  0.9%)
Density matrix formation    ....       0.002 sec  (  0.0%)
Population analysis         ....       0.232 sec  (  2.0%)
Initial guess               ....       0.088 sec  (  0.8%)
Orbital Transformation      ....       0.003 sec  (  0.0%)
Orbital Orthonormalization  ....       0.000 sec  (  0.0%)
DIIS solution               ....       0.087 sec  (  0.8%)

Maximum memory used throughout the entire SCF-calculation: 228.6 MB

------------------------------------------------------------------------------
                                ORCA  MP2 
------------------------------------------------------------------------------

MP2 will be done in the AO integral direct mode
The Q1-step will be done using symmetric double matrices
Dimension of the basis                    ...   64
Memory devoted for MP2                    ...  256 MB   
Memory needed for all in one shot         ...   18 MB
Number of MOs that can be treated together...  251      
MP2 density construction                  ... relaxed
The MP2 gradient is requested => amplitudes will be stored on disk
Total number of MOs              ...   17
Number of MOs treated per batch  ...   17 
Number of batches necessary      ...    1 
OPERATORS   0/  0 PASS   0
OPERATORS   0/  1 PASS   0
Total number of MOs              ...   17
Number of MOs treated per batch  ...   16 
Number of batches necessary      ...    1 
OPERATORS   1/  0 PASS   0
OPERATORS   1/  1 PASS   0

Correlation energy components
 E2 and T2 for alpha/alpha pairs :     -0.079312691 Eh
 E2 and T2 for beta/beta   pairs :     -0.085827255 Eh
 E2 and T2 for alpha/beta  pairs :     -0.444904144 Eh

-----------------------------------------------
 MP2 CORRELATION ENERGY   :     -0.610044089 Eh
-----------------------------------------------


---------------------
MP2 DENSITY FORMATION
---------------------

Completing the external part of the density      ... done
Storing the unrelaxed density                    ... done

Calculating G(D)                                 ... done
Completing the Lagrangian                        ... done
Solving the Z-vector equations                   ... 

------------------------------------------------------------------------------
                           ORCA CP-SCF CALCULATION
------------------------------------------------------------------------------

Input orbitals are from        ... input.gbw
Input Perturbation             ... input.pin.tmp
Wavefunction output            ... input.pout.tmp
Perturbation mode              ... Real perturbation (singlet)
Solver                         ... POPLE
Max. number of iterations      ... 128
Convergence tolerance          ... 3.000e-05
Integral handling              ... Direct
Number of perturbations        ... 1
Number of operators            ... 2
Orbital ranges used for CP-SCF:
 Operator 0:  Orbitals   0... 16  to  17... 63
 Operator 1:  Orbitals   0... 15  to  16... 63
Variables per perturbation     ... 1567
Memory available               ... 1017.7 MB
Memory needed per perturbation ...   3.2 MB
Perturbations treated per batch... 1
Number of batches              ... 1
     CP-SCF ITERATION   0:   1.2697e-01 (   0.2 sec)
     CP-SCF ITERATION   1:   1.0194e-01 (   0.2 sec)
     CP-SCF ITERATION   2:   4.8687e-02 (   0.2 sec)
     CP-SCF ITERATION   3:   3.1452e-02 (   0.2 sec)
     CP-SCF ITERATION   4:   1.3857e-02 (   0.2 sec)
     CP-SCF ITERATION   5:   9.0267e-03 (   0.2 sec)
     CP-SCF ITERATION   6:   4.8338e-03 (   0.2 sec)
     CP-SCF ITERATION   7:   5.4709e-03 (   0.2 sec)
     CP-SCF ITERATION   8:   3.9457e-03 (   0.2 sec)
     CP-SCF ITERATION   9:   2.2473e-03 (   0.2 sec)
     CP-SCF ITERATION  10:   1.1711e-03 (   0.2 sec)
     CP-SCF ITERATION  11:   6.6986e-04 (   0.2 sec)
     CP-SCF ITERATION  12:   2.7780e-04 (   0.2 sec)
     CP-SCF ITERATION  13:   9.4987e-05 (   0.2 sec)
     CP-SCF ITERATION  14:   3.1749e-05 (   0.2 sec)
     CP-SCF ITERATION  15:   1.2274e-05 (   0.2 sec)
                    *** THE CP-SCF HAS CONVERGED ***
                                                 ... done
Finalizing the relaxed density                   ... done
Transforming P to the AO basis                   ... done
Storing the relaxed density                      ... done

------------------------------------
ENERGY WEIGHTED DENSITY FINALIZATION
------------------------------------

Gathering the parts of the W-matrix              ...                                                                                                           done
Forming the Z-density                            ... done
Transforming Z to the AO basis                   ... done
Calculating G(Z)                                 ... done
Finalizing the W-matrix                          ...                                                                                                           done
Transforming W to the AO basis and storing       ... done

                *********************************************
                * UNRELAXED MP2 DENSITY POPULATION ANALYSIS *
                *********************************************

------------------------------------------------------------------------------
                           ORCA POPULATION ANALYSIS
------------------------------------------------------------------------------
Input electron density              ... input.pmp2ur
Input spin density                  ... input.rmp2ur
BaseName (.gbw .S,...)              ... input

                    ********************************
                    * MULLIKEN POPULATION ANALYSIS *
                    ********************************

------------------------------------------
MULLIKEN ATOMIC CHARGES AND SPIN DENSITIES
------------------------------------------
   0 C :   -0.546271    0.066398
   1 C :    0.405622   -0.257230
   2 F :   -0.496368    0.209664
   3 O :   -0.317990    0.619011
   4 H :    0.207169   -0.010881
   5 H :    0.215687    0.005350
   6 H :    0.223139   -0.005769
   7 H :    0.309013    0.373456
Sum of atomic charges       :    0.0000000
Sum of atomic spin densities:    1.0000000

---------------------------------------------------
MULLIKEN REDUCED ORBITAL CHARGES AND SPIN DENSITIES
---------------------------------------------------
CHARGE
  0 C s       :     3.338324  s :     3.338324
      pz      :     0.901374  p :     3.146207
      px      :     1.125140
      py      :     1.119693
      dz2     :     0.014199  d :     0.061740
      dxz     :     0.009511
      dyz     :     0.012826
      dx2y2   :     0.015506
      dxy     :     0.009699
  1 C s       :     3.125590  s :     3.125590
      pz      :     0.778300  p :     2.340853
      px      :     0.711026
      py      :     0.851527
      dz2     :     0.023678  d :     0.127935
      dxz     :     0.041826
      dyz     :     0.012849
      dx2y2   :     0.021865
      dxy     :     0.027717
  2 F s       :     3.994914  s :     3.994914
      pz      :     1.847237  p :     5.471859
      px      :     1.783548
      py      :     1.841073
      dz2     :     0.005070  d :     0.029595
      dxz     :     0.007174
      dyz     :     0.005513
      dx2y2   :     0.005957
      dxy     :     0.005881
  3 O s       :     3.868215  s :     3.868215
      pz      :     1.694418  p :     4.396057
      px      :     1.389685
      py      :     1.311954
      dz2     :     0.008519  d :     0.053719
      dxz     :     0.012914
      dyz     :     0.005438
      dx2y2   :     0.011508
      dxy     :     0.015340
  4 H s       :     0.792831  s :     0.792831
  5 H s       :     0.784313  s :     0.784313
  6 H s       :     0.776861  s :     0.776861
  7 H s       :     0.690987  s :     0.690987

SPIN
  0 C s       :     0.008254  s :     0.008254
      pz      :     0.043325  p :     0.058756
      px      :     0.009749
      py      :     0.005683
      dz2     :     0.000201  d :    -0.000612
      dxz     :     0.000214
      dyz     :    -0.000953
      dx2y2   :    -0.000176
      dxy     :     0.000101
  1 C s       :    -0.030091  s :    -0.030091
      pz      :    -0.039274  p :    -0.242315
      px      :    -0.020485
      py      :    -0.182556
      dz2     :     0.001899  d :     0.015175
      dxz     :    -0.000116
      dyz     :     0.001000
      dx2y2   :     0.000205
      dxy     :     0.012188
  2 F s       :     0.000544  s :     0.000544
      pz      :     0.032576  p :     0.209847
      px      :     0.049802
      py      :     0.127469
      dz2     :     0.000183  d :    -0.000727
      dxz     :    -0.000383
      dyz     :    -0.000367
      dx2y2   :     0.000275
      dxy     :    -0.000435
  3 O s       :     0.026757  s :     0.026757
      pz      :     0.070899  p :     0.594177
      px      :     0.044927
      py      :     0.478352
      dz2     :    -0.000103  d :    -0.001923
      dxz     :    -0.000216
      dyz     :     0.000381
      dx2y2   :     0.000672
      dxy     :    -0.002657
  4 H s       :    -0.010881  s :    -0.010881
  5 H s       :     0.005350  s :     0.005350
  6 H s       :    -0.005769  s :    -0.005769
  7 H s       :     0.373456  s :     0.373456


                     *******************************
                     * LOEWDIN POPULATION ANALYSIS *
                     *******************************

-----------------------------------------
LOEWDIN ATOMIC CHARGES AND SPIN DENSITIES
-----------------------------------------
   0 C :   -0.377153    0.048301
   1 C :    0.110441   -0.139835
   2 F :   -0.383132    0.227195
   3 O :   -0.084760    0.560554
   4 H :    0.155152   -0.007933
   5 H :    0.158249    0.002269
   6 H :    0.161323   -0.003805
   7 H :    0.259880    0.313255

--------------------------------------------------
LOEWDIN REDUCED ORBITAL CHARGES AND SPIN DENSITIES
--------------------------------------------------
CHARGE
  0 C s       :     2.981064  s :     2.981064
      pz      :     1.025228  p :     3.301284
      px      :     1.135439
      py      :     1.140618
      dz2     :     0.024918  d :     0.094804
      dxz     :     0.015071
      dyz     :     0.020522
      dx2y2   :     0.022140
      dxy     :     0.012154
  1 C s       :     2.906096  s :     2.906096
      pz      :     0.909365  p :     2.716041
      px      :     0.926004
      py      :     0.880673
      dz2     :     0.048301  d :     0.267422
      dxz     :     0.090701
      dyz     :     0.021849
      dx2y2   :     0.050337
      dxy     :     0.056234
  2 F s       :     3.868398  s :     3.868398
      pz      :     1.847618  p :     5.476034
      px      :     1.785805
      py      :     1.842611
      dz2     :     0.006244  d :     0.038700
      dxz     :     0.009316
      dyz     :     0.007399
      dx2y2   :     0.007641
      dxy     :     0.008100
  3 O s       :     3.546174  s :     3.546174
      pz      :     1.665609  p :     4.453452
      px      :     1.490336
      py      :     1.297507
      dz2     :     0.012356  d :     0.085134
      dxz     :     0.021439
      dyz     :     0.006079
      dx2y2   :     0.023433
      dxy     :     0.021827
  4 H s       :     0.844848  s :     0.844848
  5 H s       :     0.841751  s :     0.841751
  6 H s       :     0.838677  s :     0.838677
  7 H s       :     0.740120  s :     0.740120

SPIN
  0 C s       :     0.008734  s :     0.008734
      pz      :     0.032409  p :     0.042241
      px      :     0.005920
      py      :     0.003912
      dz2     :    -0.000525  d :    -0.002673
      dxz     :    -0.000210
      dyz     :    -0.001574
      dx2y2   :    -0.000399
      dxy     :     0.000035
  1 C s       :    -0.020568  s :    -0.020568
      pz      :    -0.016000  p :    -0.159307
      px      :    -0.014540
      py      :    -0.128767
      dz2     :     0.005076  d :     0.040040
      dxz     :     0.001657
      dyz     :     0.002479
      dx2y2   :     0.001392
      dxy     :     0.029436
  2 F s       :     0.010648  s :     0.010648
      pz      :     0.030530  p :     0.215340
      px      :     0.046212
      py      :     0.138598
      dz2     :     0.000558  d :     0.001206
      dxz     :    -0.000605
      dyz     :     0.000234
      dx2y2   :     0.001017
      dxy     :     0.000002
  3 O s       :     0.015380  s :     0.015380
      pz      :     0.066620  p :     0.550191
      px      :     0.035436
      py      :     0.448136
      dz2     :    -0.000206  d :    -0.005017
      dxz     :    -0.000513
      dyz     :    -0.000035
      dx2y2   :     0.000449
      dxy     :    -0.004713
  4 H s       :    -0.007933  s :    -0.007933
  5 H s       :     0.002269  s :     0.002269
  6 H s       :    -0.003805  s :    -0.003805
  7 H s       :     0.313255  s :     0.313255


                      *****************************
                      * MAYER POPULATION ANALYSIS *
                      *****************************

  NA   - Mulliken gross atomic population
  ZA   - Total nuclear charge
  QA   - Mulliken gross atomic charge
  VA   - Mayer's total valence
  BVA  - Mayer's bonded valence
  FA   - Mayer's free valence

  ATOM       NA         ZA         QA         VA         BVA        FA
  0 C      6.5463     6.0000    -0.5463     3.8190     3.5697     0.2493
  1 C      5.5944     6.0000     0.4056     3.7432     3.4058     0.3374
  2 F      9.4964     9.0000    -0.4964     1.0498     0.6246     0.4252
  3 O      8.3180     8.0000    -0.3180     2.3293     1.6362     0.6930
  4 H      0.7928     1.0000     0.2072     0.9201     0.8831     0.0370
  5 H      0.7843     1.0000     0.2157     0.9198     0.8839     0.0359
  6 H      0.7769     1.0000     0.2231     0.9230     0.8874     0.0356
  7 H      0.6910     1.0000     0.3090     0.8811     0.7004     0.1807

  Mayer bond orders larger than 0.100000
B(  0-C ,  1-C ) :   0.8679 B(  0-C ,  4-H ) :   0.8999 B(  0-C ,  5-H ) :   0.9044 
B(  0-C ,  6-H ) :   0.9032 B(  1-C ,  2-F ) :   0.4402 B(  1-C ,  3-O ) :   1.5421 
B(  1-C ,  7-H ) :   0.5861 B(  2-F ,  7-H ) :   0.1001 


                *******************************************
                * RELAXED MP2 DENSITY POPULATION ANALYSIS *
                *******************************************

------------------------------------------------------------------------------
                           ORCA POPULATION ANALYSIS
------------------------------------------------------------------------------
Input electron density              ... input.pmp2re
Input spin density                  ... input.rmp2re
BaseName (.gbw .S,...)              ... input

                    ********************************
                    * MULLIKEN POPULATION ANALYSIS *
                    ********************************

------------------------------------------
MULLIKEN ATOMIC CHARGES AND SPIN DENSITIES
------------------------------------------
   0 C :   -0.555162    0.017860
   1 C :    0.382049    0.214828
   2 F :   -0.390901    0.211341
   3 O :   -0.374229    0.208414
   4 H :    0.212675   -0.000198
   5 H :    0.228902    0.024910
   6 H :    0.210541   -0.002595
   7 H :    0.286126    0.325441
Sum of atomic charges       :    0.0000000
Sum of atomic spin densities:    1.0000000

---------------------------------------------------
MULLIKEN REDUCED ORBITAL CHARGES AND SPIN DENSITIES
---------------------------------------------------
CHARGE
  0 C s       :     3.314467  s :     3.314467
      pz      :     0.929953  p :     3.187312
      px      :     1.121203
      py      :     1.136156
      dz2     :     0.012292  d :     0.053383
      dxz     :     0.008314
      dyz     :     0.010768
      dx2y2   :     0.013378
      dxy     :     0.008631
  1 C s       :     3.137296  s :     3.137296
      pz      :     0.828497  p :     2.349732
      px      :     0.782211
      py      :     0.739024
      dz2     :     0.022533  d :     0.130922
      dxz     :     0.041967
      dyz     :     0.012427
      dx2y2   :     0.019713
      dxy     :     0.034282
  2 F s       :     3.991617  s :     3.991617
      pz      :     1.841092  p :     5.369781
      px      :     1.790316
      py      :     1.738372
      dz2     :     0.005371  d :     0.029504
      dxz     :     0.006475
      dyz     :     0.005626
      dx2y2   :     0.006185
      dxy     :     0.005847
  3 O s       :     3.834583  s :     3.834583
      pz      :     1.616768  p :     4.487073
      px      :     1.357623
      py      :     1.512683
      dz2     :     0.008566  d :     0.052573
      dxz     :     0.013273
      dyz     :     0.005406
      dx2y2   :     0.010606
      dxy     :     0.014722
  4 H s       :     0.787325  s :     0.787325
  5 H s       :     0.771098  s :     0.771098
  6 H s       :     0.789459  s :     0.789459
  7 H s       :     0.713874  s :     0.713874

SPIN
  0 C s       :    -0.002955  s :    -0.002955
      pz      :     0.024524  p :     0.019280
      px      :     0.001473
      py      :    -0.006717
      dz2     :     0.000408  d :     0.001535
      dxz     :     0.000453
      dyz     :     0.000419
      dx2y2   :     0.000135
      dxy     :     0.000120
  1 C s       :     0.046538  s :     0.046538
      pz      :     0.013701  p :     0.154709
      px      :     0.016629
      py      :     0.124378
      dz2     :     0.002228  d :     0.013581
      dxz     :     0.001002
      dyz     :     0.000486
      dx2y2   :    -0.000333
      dxy     :     0.010199
  2 F s       :    -0.001198  s :    -0.001198
      pz      :    -0.002484  p :     0.212352
      px      :    -0.007662
      py      :     0.222497
      dz2     :     0.000119  d :     0.000187
      dxz     :     0.000411
      dyz     :    -0.000291
      dx2y2   :     0.000186
      dxy     :    -0.000238
  3 O s       :     0.007665  s :     0.007665
      pz      :     0.050790  p :     0.200061
      px      :     0.020549
      py      :     0.128723
      dz2     :    -0.000049  d :     0.000688
      dxz     :    -0.000183
      dyz     :     0.000591
      dx2y2   :     0.000732
      dxy     :    -0.000403
  4 H s       :    -0.000198  s :    -0.000198
  5 H s       :     0.024910  s :     0.024910
  6 H s       :    -0.002595  s :    -0.002595
  7 H s       :     0.325441  s :     0.325441


                     *******************************
                     * LOEWDIN POPULATION ANALYSIS *
                     *******************************

-----------------------------------------
LOEWDIN ATOMIC CHARGES AND SPIN DENSITIES
-----------------------------------------
   0 C :   -0.405216    0.033641
   1 C :    0.127920    0.197473
   2 F :   -0.301837    0.238405
   3 O :   -0.189444    0.216643
   4 H :    0.166178    0.000016
   5 H :    0.175963    0.017080
   6 H :    0.162134   -0.001846
   7 H :    0.264302    0.298589

--------------------------------------------------
LOEWDIN REDUCED ORBITAL CHARGES AND SPIN DENSITIES
--------------------------------------------------
CHARGE
  0 C s       :     2.984942  s :     2.984942
      pz      :     1.038713  p :     3.334966
      px      :     1.141944
      py      :     1.154309
      dz2     :     0.022732  d :     0.085307
      dxz     :     0.013669
      dyz     :     0.017593
      dx2y2   :     0.020104
      dxy     :     0.011209
  1 C s       :     2.919374  s :     2.919374
      pz      :     0.931419  p :     2.677918
      px      :     0.958676
      py      :     0.787824
      dz2     :     0.047679  d :     0.274787
      dxz     :     0.091586
      dyz     :     0.021796
      dx2y2   :     0.047153
      dxy     :     0.066573
  2 F s       :     3.872723  s :     3.872723
      pz      :     1.848415  p :     5.389696
      px      :     1.801407
      py      :     1.739875
      dz2     :     0.006477  d :     0.039417
      dxz     :     0.009354
      dyz     :     0.007483
      dx2y2   :     0.008119
      dxy     :     0.007984
  3 O s       :     3.540369  s :     3.540369
      pz      :     1.606393  p :     4.567350
      px      :     1.471168
      py      :     1.489790
      dz2     :     0.012575  d :     0.081725
      dxz     :     0.022087
      dyz     :     0.005657
      dx2y2   :     0.023431
      dxy     :     0.017976
  4 H s       :     0.833822  s :     0.833822
  5 H s       :     0.824037  s :     0.824037
  6 H s       :     0.837866  s :     0.837866
  7 H s       :     0.735698  s :     0.735698

SPIN
  0 C s       :     0.006744  s :     0.006744
      pz      :     0.024213  p :     0.024327
      px      :     0.001426
      py      :    -0.001312
      dz2     :     0.000391  d :     0.002570
      dxz     :     0.000497
      dyz     :     0.001280
      dx2y2   :     0.000211
      dxy     :     0.000191
  1 C s       :     0.010929  s :     0.010929
      pz      :     0.020829  p :     0.154324
      px      :     0.014726
      py      :     0.118769
      dz2     :     0.005687  d :     0.032220
      dxz     :     0.002574
      dyz     :     0.000388
      dx2y2   :     0.000197
      dxy     :     0.023374
  2 F s       :     0.008284  s :     0.008284
      pz      :    -0.001160  p :     0.226885
      px      :    -0.004883
      py      :     0.232929
      dz2     :     0.000562  d :     0.003235
      dxz     :     0.000527
      dyz     :     0.000440
      dx2y2   :     0.001273
      dxy     :     0.000433
  3 O s       :     0.005564  s :     0.005564
      pz      :     0.051047  p :     0.205740
      px      :     0.022941
      py      :     0.131752
      dz2     :     0.000421  d :     0.005338
      dxz     :     0.000397
      dyz     :     0.000790
      dx2y2   :     0.001037
      dxy     :     0.002693
  4 H s       :     0.000016  s :     0.000016
  5 H s       :     0.017080  s :     0.017080
  6 H s       :    -0.001846  s :    -0.001846
  7 H s       :     0.298589  s :     0.298589


                      *****************************
                      * MAYER POPULATION ANALYSIS *
                      *****************************

  NA   - Mulliken gross atomic population
  ZA   - Total nuclear charge
  QA   - Mulliken gross atomic charge
  VA   - Mayer's total valence
  BVA  - Mayer's bonded valence
  FA   - Mayer's free valence

  ATOM       NA         ZA         QA         VA         BVA        FA
  0 C      6.5552     6.0000    -0.5552     3.8277     3.5894     0.2383
  1 C      5.6180     6.0000     0.3820     3.9763     3.8614     0.1150
  2 F      9.3909     9.0000    -0.3909     1.2191     0.8794     0.3397
  3 O      8.3742     8.0000    -0.3742     2.3572     2.2274     0.1298
  4 H      0.7873     1.0000     0.2127     0.9211     0.8858     0.0353
  5 H      0.7711     1.0000     0.2289     0.9198     0.8892     0.0306
  6 H      0.7895     1.0000     0.2105     0.9295     0.8948     0.0348
  7 H      0.7139     1.0000     0.2861     0.8911     0.7701     0.1210

  Mayer bond orders larger than 0.100000
B(  0-C ,  1-C ) :   0.8847 B(  0-C ,  4-H ) :   0.8942 B(  0-C ,  5-H ) :   0.8933 
B(  0-C ,  6-H ) :   0.8999 B(  1-C ,  2-F ) :   0.4681 B(  1-C ,  3-O ) :   2.0100 
B(  1-C ,  7-H ) :   0.5116 B(  2-F ,  3-O ) :   0.1487 B(  2-F ,  7-H ) :   0.2175 



----------------------------------
MP2 DERIVATIVE INTEGRAL GENERATION
----------------------------------


Input Wavefunction Amplitudes       ... input.mp2tbb.tmp
Input Correlated Electron Density   ... input.pmp2re
Input Energy Weighted Density       ... input.wmp2.tmp
Input SCF Electron Density          ... input.scfp

One-Electron Terms    ...
                        ... One-Electron Terms done
Prescreening matrices              ... done

Batch handling in the gradient evaluation:
Memory available                      ...  256.0 MB
Memory per occupied orbital in Q2     ...    1.0 MB
Memory per occupied orbital in Q3     ...    0.0 MB
Total memory requirement per |i>      ...    1.0 MB
Max. Number of orbitals possible      ...    245
Number of orbitals treated per batch  ...     33
Number of batches to be done          ...      1
Batch   0: i=    0 ...    32

---------------------------------------
MP2 TOTAL ENERGY:     -252.833692937 Eh
---------------------------------------

The final MP2 gradient
  0:  -0.00017808  -0.00015739  -0.00008073
  1:   0.00191282   0.00044551   0.00030930
  2:  -0.00005282   0.00009806  -0.00000338
  3:  -0.00033396  -0.00026728   0.00038584
  4:   0.00031102   0.00019971   0.00004878
  5:  -0.00034879   0.00021967  -0.00021483
  6:  -0.00001228  -0.00037226   0.00012063
  7:  -0.00129791  -0.00016603  -0.00056561

-----------------------------------
NORM OF THE MP2 GRADIENT:  0.002627
-----------------------------------

Maximum memory used throughout the entire MP2-calculation: 111.3 MB

-------------------------   --------------------
FINAL SINGLE POINT ENERGY      -252.833692937058
-------------------------   --------------------

------------------------------------------------------------------------------
                         ORCA GEOMETRY RELAXATION STEP
------------------------------------------------------------------------------

Reading the OPT-File                    .... done
Getting information on internals        .... done
Copying old internal coords+grads       .... done
Making the new internal coordinates     .... (new redundants).... done
Validating the new internal coordinates .... (new redundants).... done
Calculating the B-matrix                .... done
Calculating the G,G- and P matrices     .... done
Transforming gradient to internals      .... done
Projecting the internal gradient        .... done
Number of atoms                         ....   8
Number of internal coordinates          ....  28
Current Energy                          ....  -252.833692937 Eh
Current gradient norm                   ....     0.002626918 Eh/bohr
Maximum allowed component of the step   ....  0.300
Current trust radius                    ....  0.300
Evaluating the initial hessian          ....  (Almloef) done
Projecting the Hessian                  .... done
Diagonalizing the Hessian               .... done
Dimension of the hessian                ....  28
Lowest eigenvalues of the Hessian:
  0.012975588  0.044822172  0.109642372  0.111339328  0.117538617
Hessian has   0 negative eigenvalues
Taking P-RFO step
Searching for lambda that maximizes along the lowest mode
TS mode is mode number   0 with eigenvalue   0.01297559 and components:
   1.    0.00000000
   2.    0.00000000
   3.   -0.00000000
   4.   -0.00000000
   5.   -0.00000000
   6.    0.00000000
   7.    0.00000000
   8.    0.00000000
   9.   -0.00000000
  10.   -0.00000000
  11.    0.00000000
  12.    0.00000000
  13.    0.00000000
  14.    0.00000000
  15.   -0.00000000
  16.   -0.00000000
  17.    0.00000000
  18.    0.00000000
  19.   -0.00000000
  20.   -0.33333333
  21.   -0.33333333
  22.   -0.33333333
  23.   -0.33333333
  24.   -0.33333333
  25.   -0.33333333
  26.   -0.33333333
  27.   -0.33333333
  28.   -0.33333333

Lambda that maximizes along the TS mode:       0.01302409
Searching for lambda that minimizes along all other modes
In cycle   1: lambdaN =  -0.00001002   step =   0.00001002
In cycle   2: lambdaN =  -0.00001002   step =   0.00000000
Lambda that minimizes along all other modes:  -0.00001002
Calculated stepsize too large (   0.9000 >    0.3000). Scaled with    0.3333.
The final length of the internal step   ....       0.3000
Converting the step to cartesian space:
 Initial RMS(Int)=    0.0566946710
Transforming coordinates:
 Iter   0:  RMS(Cart)=    0.0523063164 RMS(Int)=    0.0566525272
 Iter   1:  RMS(Cart)=    0.0013727789 RMS(Int)=    0.0012380540
 Iter   2:  RMS(Cart)=    0.0000713926 RMS(Int)=    0.0000767059
 Iter   3:  RMS(Cart)=    0.0000037337 RMS(Int)=    0.0000033837
 Iter   4:  RMS(Cart)=    0.0000001945 RMS(Int)=    0.0000002085
 Iter   5:  RMS(Cart)=    0.0000000102 RMS(Int)=    0.0000000093
done
Storing new coordinates                 .... done

                                .--------------------.
          ----------------------|Geometry convergence|-------------------------
          Item                value                   Tolerance       Converged
          ---------------------------------------------------------------------
          RMS gradient        0.0003134134            0.0000080000      NO
          MAX gradient        0.0011819764            0.0000300000      NO
          RMS step            0.0566946710            0.0001000000      NO
          MAX step            0.0999972867            0.0002000000      NO
          ........................................................
          Max(Bonds)      0.0010      Max(Angles)    0.04
          Max(Dihed)        5.73      Max(Improp)    0.00
          ---------------------------------------------------------------------

The optimization has not yet converged - more geometry cycles are needed


    ---------------------------------------------------------------------------
                         Redundant Internal Coordinates
                            (Angstroem and degrees)

        Definition                    Value    dE/dq     Step     New-Value  comp.(TS mode)
    ----------------------------------------------------------------------------
     1. B(C   1,C   0)                1.5083  0.000060 -0.0000    1.5083   
     2. B(F   2,C   1)                1.6497 -0.000077  0.0001    1.6497   
     3. B(O   3,C   1)                1.1833  0.000434 -0.0001    1.1832   
     4. B(H   4,C   0)                1.0909  0.000003 -0.0000    1.0909   
     5. B(H   5,C   0)                1.0918 -0.000003  0.0000    1.0918   
     6. B(H   6,C   0)                1.0870 -0.000005  0.0000    1.0870   
     7. B(H   7,C   1)                1.2497 -0.001182  0.0010    1.2508   
     8. A(C   1,C   0,H   5)          106.94  0.000076   -0.00    106.94   
     9. A(H   4,C   0,H   6)          110.92  0.000016   -0.00    110.92   
    10. A(C   1,C   0,H   4)          108.51  0.000030   -0.00    108.51   
    11. A(H   4,C   0,H   5)          108.96 -0.000062    0.01    108.96   
    12. A(H   5,C   0,H   6)          110.27  0.000025   -0.00    110.26   
    13. A(C   1,C   0,H   6)          111.13 -0.000084    0.00    111.14   
    14. A(O   3,C   1,H   7)          114.17 -0.000408    0.03    114.20   
    15. A(F   2,C   1,O   3)          118.65 -0.000121    0.01    118.66   
    16. A(F   2,C   1,H   7)           60.67  0.000199   -0.04     60.63   
    17. A(C   0,C   1,H   7)          110.08  0.000380   -0.02    110.07   
    18. A(C   0,C   1,O   3)          128.97 -0.000018    0.01    128.98   
    19. A(C   0,C   1,F   2)          104.33  0.000110   -0.01    104.32   
    20. D(F   2,C   1,C   0,H   5)     91.55  0.000158    5.73     97.28          0.33
    21. D(F   2,C   1,C   0,H   6)    -28.84  0.000128    5.73    -23.11          0.33
    22. D(O   3,C   1,C   0,H   4)     61.46  0.000227    5.73     67.19          0.33
    23. D(O   3,C   1,C   0,H   5)    -55.94  0.000243    5.73    -50.21          0.33
    24. D(O   3,C   1,C   0,H   6)   -176.33  0.000213    5.73   -170.60          0.33
    25. D(H   7,C   1,C   0,H   4)    -87.48  0.000424    5.73    -81.75          0.33
    26. D(H   7,C   1,C   0,H   5)    155.13  0.000440    5.73    160.86          0.33
    27. D(H   7,C   1,C   0,H   6)     34.73  0.000411    5.73     40.46          0.33
    28. D(F   2,C   1,C   0,H   4)   -151.05  0.000142    5.73   -145.33          0.33
    ----------------------------------------------------------------------------

         *************************************************************
         *                GEOMETRY OPTIMIZATION CYCLE   2            *
         *************************************************************
---------------------------------
CARTESIAN COORDINATES (ANGSTROEM)
---------------------------------
  C      1.101383   -0.233275   -0.006533
  C      0.593315    0.031147    1.388770
  F      1.788428   -0.538479    2.373081
  O     -0.520414    0.028339    1.788237
  H      0.766446    0.576521   -0.656261
  H      0.644696   -1.167388   -0.339622
  H      2.184996   -0.318346   -0.019572
  H      1.345269    0.842358    1.972623

----------------------------
CARTESIAN COORDINATES (A.U.)
----------------------------
  NO LB      ZA    FRAG     MASS         X           Y           Z
   0 C     6.0000    0    12.011    2.081311   -0.440825   -0.012346
   1 C     6.0000    0    12.011    1.121204    0.058859    2.624394
   2 F     9.0000    0    18.998    3.379640   -1.017578    4.484473
   3 O     8.0000    0    15.999   -0.983439    0.053552    3.379278
   4 H     1.0000    0     1.008    1.448374    1.089466   -1.240154
   5 H     1.0000    0     1.008    1.218299   -2.206044   -0.641793
[...]
AutoCI program output          ... >input.lastautoci

	<< Calculating on displaced geometry   1 (of  48) >>
	<< Calculating on displaced geometry   2 (of  48) >>
	<< Calculating on displaced geometry   3 (of  48) >>
	<< Calculating on displaced geometry   4 (of  48) >>
	<< Calculating on displaced geometry   5 (of  48) >>
	<< Calculating on displaced geometry   6 (of  48) >>
	<< Calculating on displaced geometry   7 (of  48) >>
	<< Calculating on displaced geometry   8 (of  48) >>
	<< Calculating on displaced geometry   9 (of  48) >>
	<< Calculating on displaced geometry  10 (of  48) >>
	<< Calculating on displaced geometry  11 (of  48) >>
	<< Calculating on displaced geometry  12 (of  48) >>
	<< Calculating on displaced geometry  13 (of  48) >>
	<< Calculating on displaced geometry  14 (of  48) >>
	<< Calculating on displaced geometry  15 (of  48) >>
	<< Calculating on displaced geometry  16 (of  48) >>
	<< Calculating on displaced geometry  17 (of  48) >>
	<< Calculating on displaced geometry  18 (of  48) >>
	<< Calculating on displaced geometry  19 (of  48) >>
	<< Calculating on displaced geometry  20 (of  48) >>
	<< Calculating on displaced geometry  21 (of  48) >>
	<< Calculating on displaced geometry  22 (of  48) >>
	<< Calculating on displaced geometry  23 (of  48) >>
	<< Calculating on displaced geometry  24 (of  48) >>
	<< Calculating on displaced geometry  25 (of  48) >>
	<< Calculating on displaced geometry  26 (of  48) >>
	<< Calculating on displaced geometry  27 (of  48) >>
	<< Calculating on displaced geometry  28 (of  48) >>
	<< Calculating on displaced geometry  29 (of  48) >>
	<< Calculating on displaced geometry  30 (of  48) >>
	<< Calculating on displaced geometry  31 (of  48) >>
	<< Calculating on displaced geometry  32 (of  48) >>
	<< Calculating on displaced geometry  33 (of  48) >>
	<< Calculating on displaced geometry  34 (of  48) >>
	<< Calculating on displaced geometry  35 (of  48) >>
	<< Calculating on displaced geometry  36 (of  48) >>
	<< Calculating on displaced geometry  37 (of  48) >>
	<< Calculating on displaced geometry  38 (of  48) >>
	<< Calculating on displaced geometry  39 (of  48) >>
	<< Calculating on displaced geometry  40 (of  48) >>
	<< Calculating on displaced geometry  41 (of  48) >>
	<< Calculating on displaced geometry  42 (of  48) >>
	<< Calculating on displaced geometry  43 (of  48) >>
	<< Calculating on displaced geometry  44 (of  48) >>
	<< Calculating on displaced geometry  45 (of  48) >>
	<< Calculating on displaced geometry  46 (of  48) >>
	<< Calculating on displaced geometry  47 (of  48) >>
	<< Calculating on displaced geometry  48 (of  48) >>

-----------------------
VIBRATIONAL FREQUENCIES
-----------------------

Scaling factor for frequencies =  1.000000000 (already applied!)

   0:         0.00 cm**-1
   1:         0.00 cm**-1
   2:         0.00 cm**-1
   3:         0.00 cm**-1
   4:         0.00 cm**-1
   5:         0.00 cm**-1
   6:      -777.53 cm**-1 ***imaginary mode***
   7:       156.24 cm**-1
   8:       348.54 cm**-1
   9:       486.22 cm**-1
  10:       563.09 cm**-1
  11:       704.63 cm**-1
  12:       972.09 cm**-1
  13:      1010.24 cm**-1
  14:      1078.69 cm**-1
  15:      1147.32 cm**-1
  16:      1443.62 cm**-1
  17:      1528.80 cm**-1
  18:      1539.75 cm**-1
  19:      1591.75 cm**-1
  20:      2036.22 cm**-1
  21:      3138.95 cm**-1
  22:      3238.11 cm**-1
  23:      3266.71 cm**-1


------------
NORMAL MODES
------------

These modes are the cartesian displacements weighted by the diagonal matrix
M(i,i)=1/sqrt(m[i]) where m[i] is the mass of the displaced atom
Thus, these vectors are normalized but *not* orthogonal

                  0          1          2          3          4          5    
      0       0.000000   0.000000   0.000000   0.000000   0.000000   0.000000
      1       0.000000   0.000000   0.000000   0.000000   0.000000   0.000000
      2       0.000000   0.000000   0.000000   0.000000   0.000000   0.000000
      3       0.000000   0.000000   0.000000   0.000000   0.000000   0.000000
      4       0.000000   0.000000   0.000000   0.000000   0.000000   0.000000
      5       0.000000   0.000000   0.000000   0.000000   0.000000   0.000000
      6       0.000000   0.000000   0.000000   0.000000   0.000000   0.000000
      7       0.000000   0.000000   0.000000   0.000000   0.000000   0.000000
      8       0.000000   0.000000   0.000000   0.000000   0.000000   0.000000
      9       0.000000   0.000000   0.000000   0.000000   0.000000   0.000000
     10       0.000000   0.000000   0.000000   0.000000   0.000000   0.000000
     11       0.000000   0.000000   0.000000   0.000000   0.000000   0.000000
     12       0.000000   0.000000   0.000000   0.000000   0.000000   0.000000
     13       0.000000   0.000000   0.000000   0.000000   0.000000   0.000000
     14       0.000000   0.000000   0.000000   0.000000   0.000000   0.000000
     15       0.000000   0.000000   0.000000   0.000000   0.000000   0.000000
     16       0.000000   0.000000   0.000000   0.000000   0.000000   0.000000
     17       0.000000   0.000000   0.000000   0.000000   0.000000   0.000000
     18       0.000000   0.000000   0.000000   0.000000   0.000000   0.000000
     19       0.000000   0.000000   0.000000   0.000000   0.000000   0.000000
     20       0.000000   0.000000   0.000000   0.000000   0.000000   0.000000
     21       0.000000   0.000000   0.000000   0.000000   0.000000   0.000000
     22       0.000000   0.000000   0.000000   0.000000   0.000000   0.000000
     23       0.000000   0.000000   0.000000   0.000000   0.000000   0.000000
                  6          7          8          9         10         11    
      0       0.004256  -0.013338  -0.179261  -0.106820   0.009485  -0.024897
      1      -0.005828  -0.012374  -0.102259  -0.065125   0.021942   0.036438
      2      -0.000942  -0.014269  -0.162735   0.184566  -0.052621   0.142688
      3      -0.193017   0.021709   0.107026   0.063529   0.145389   0.085863
      4      -0.040381  -0.017823   0.064329   0.082494  -0.307808  -0.032763
      5      -0.083986  -0.000911  -0.066892   0.147866   0.051062   0.063060
      6       0.088203  -0.022375  -0.013836   0.211245   0.049823  -0.105176
      7       0.069268   0.039096   0.012955   0.110786   0.092412  -0.027992
      8       0.042791   0.015481   0.251523  -0.019472   0.025718  -0.067100
      9      -0.023072   0.030036   0.117335  -0.157955  -0.168525   0.053275
     10      -0.040664  -0.022112   0.040234  -0.107181   0.066627   0.006505
     11      -0.006271   0.000884  -0.082899  -0.284900   0.013863  -0.085454
     12       0.023193   0.425444  -0.365748  -0.061389  -0.240230  -0.051469
     13      -0.005386  -0.273996  -0.098255  -0.193307   0.274241  -0.021781
     14       0.053203   0.149979  -0.538773  -0.070373   0.138973  -0.062356
     15       0.028961  -0.055866  -0.407219  -0.227971  -0.163460  -0.142547
     16       0.003452   0.557239  -0.281937  -0.099979   0.184401  -0.048686
     17      -0.036221  -0.050022   0.175218   0.356551   0.153559   0.324069
     18      -0.027771  -0.510884  -0.140996  -0.232588   0.161568  -0.087932
     19      -0.029536  -0.326952  -0.072999  -0.147119   0.151421  -0.010393
     20       0.043512  -0.170008  -0.220631   0.243794  -0.649640   0.177303
     21       0.928658  -0.013472   0.173127  -0.436525   0.132509   0.692193
     22      -0.078008   0.017635   0.022386  -0.153401  -0.002981   0.461400
     23       0.244509  -0.054871  -0.104388   0.397807  -0.329068  -0.269666
                 12         13         14         15         16         17    
      0       0.056611   0.105453  -0.116250  -0.077162  -0.046540  -0.043606
      1      -0.028884   0.073074   0.078478  -0.119627   0.037766  -0.031306
      2       0.027143  -0.204116  -0.029161  -0.071633   0.133968   0.011648
      3       0.051837   0.012892   0.104300   0.049246   0.007562   0.014921
      4      -0.003820   0.029221  -0.147476   0.082632   0.001365   0.005490
      5      -0.034483   0.219695  -0.045842   0.147238  -0.011333  -0.014141
      6      -0.069562  -0.013167  -0.012012  -0.027837  -0.000747  -0.005627
      7      -0.001253   0.007933   0.020179   0.003165   0.001501   0.002317
      8      -0.038219  -0.021904   0.010699  -0.014726   0.000863  -0.002431
      9       0.011902  -0.093244   0.002353   0.007519  -0.001254  -0.012405
     10       0.041954  -0.066730   0.052140  -0.008404  -0.000870  -0.008160
     11       0.007068   0.046222  -0.004880  -0.040117   0.000755   0.010244
     12      -0.089427   0.227966   0.241137  -0.064404   0.094032   0.184469
     13       0.026204  -0.206934  -0.152966   0.093204  -0.265700  -0.288452
     14      -0.115233  -0.763010   0.074441   0.509234  -0.445467  -0.298516
     15      -0.141137  -0.004592   0.191688   0.229394   0.385395  -0.137431
     16       0.058840  -0.189575  -0.247459   0.139685  -0.195044   0.524972
     17       0.275696  -0.020122  -0.377801  -0.521885  -0.427625   0.069018
     18      -0.011521  -0.135117  -0.090295   0.290485  -0.021859   0.538964
     19      -0.054168  -0.110751   0.043398   0.127648   0.079723   0.340776
     20      -0.293663   0.103056   0.652667  -0.231672  -0.555712   0.206440
     21       0.071994   0.229711  -0.011071   0.282470   0.040856   0.058745
     22      -0.283457   0.197973  -0.028699   0.154018  -0.099730  -0.183830
     23       0.828789   0.173635   0.420210   0.257728  -0.060723  -0.064011
                 18         19         20         21         22         23    
      0       0.033341   0.000651  -0.014188   0.015162   0.061908   0.065312
      1      -0.037550  -0.022272  -0.010614  -0.020436  -0.059583   0.068647
      2       0.030830   0.007074   0.030920  -0.041855   0.035019   0.004893
      3       0.005404  -0.086260   0.267652  -0.000360   0.000895   0.001104
      4      -0.024701  -0.071288   0.196701  -0.000413  -0.001291   0.001326
      5      -0.002437  -0.014695  -0.295989   0.001684  -0.000259   0.000904
      6       0.003949   0.028850   0.016257  -0.000233  -0.000206  -0.000385
      7       0.001588  -0.005378   0.004427  -0.000018   0.000074  -0.000164
      8       0.002707   0.013707   0.013867  -0.000029  -0.000141  -0.000052
      9       0.001366   0.035150  -0.220932   0.000046   0.000003  -0.000458
     10       0.005330   0.021300  -0.194781   0.000217   0.000168  -0.000436
     11      -0.002435  -0.017195   0.166414   0.000115  -0.000158   0.000224
     12      -0.561723   0.082611  -0.034688  -0.263254   0.156031  -0.473925
     13       0.260190  -0.121836   0.036381  -0.370417   0.191359  -0.659479
     14      -0.352102  -0.101798   0.125495   0.124622  -0.065467   0.232540
     15       0.208006  -0.042717   0.022467   0.457467  -0.520578  -0.403182
     16       0.461294   0.072938  -0.012014   0.049448  -0.071375  -0.038082
     17      -0.303333   0.050623  -0.002033   0.329492  -0.381348  -0.297093
     18      -0.178915   0.165839  -0.022268  -0.366819  -0.382539   0.098395
     19      -0.171513   0.087690  -0.008275   0.565886   0.597482  -0.124132
     20       0.266567  -0.153554  -0.009549   0.022019   0.035623  -0.005403
     21      -0.025145  -0.287295   0.214542  -0.000113   0.002579   0.001866
     22       0.077261   0.839323   0.774681   0.000422   0.003821  -0.002070
     23       0.038174   0.310112   0.141876   0.001255   0.002168  -0.001708


-----------
IR SPECTRUM
-----------

 Mode   freq       eps      Int      T**2         TX        TY        TZ
       cm**-1   L/(mol*cm) km/mol    a.u.
----------------------------------------------------------------------------
  7:    156.24   0.000135    0.68  0.000270  ( 0.001523  0.000059 -0.016371)
  8:    348.54   0.001597    8.07  0.001430  (-0.013434 -0.008025 -0.034423)
  9:    486.22   0.009965   50.36  0.006396  (-0.036142  0.001891  0.071316)
 10:    563.09   0.007566   38.24  0.004193  ( 0.010917 -0.042317 -0.047782)
 11:    704.63   0.033797  170.79  0.014968  ( 0.118186  0.029465 -0.011479)
 12:    972.09   0.007693   38.88  0.002470  ( 0.032030 -0.006511  0.037434)
 13:   1010.24   0.011828   59.77  0.003654  ( 0.051223  0.025272  0.019777)
 14:   1078.69   0.008877   44.86  0.002568  ( 0.009556 -0.039518 -0.030251)
 15:   1147.32   0.018218   92.07  0.004955  ( 0.046003  0.024487  0.047321)
 16:   1443.62   0.001980   10.01  0.000428  ( 0.003438 -0.008095 -0.018727)
 17:   1528.80   0.003670   18.55  0.000749  ( 0.019365  0.018545  0.005503)
 18:   1539.75   0.003245   16.40  0.000658  (-0.018678  0.005813 -0.016583)
 19:   1591.75   0.022033  111.35  0.004320  (-0.033778 -0.020826 -0.052392)
 20:   2036.22   0.052576  265.70  0.008058  ( 0.064642  0.057527 -0.023867)
 21:   3138.95   0.000043    0.22  0.000004  ( 0.000957  0.001662 -0.000750)
 22:   3238.11   0.000294    1.49  0.000028  (-0.000343 -0.001230  0.005167)
 23:   3266.71   0.000424    2.14  0.000040  ( 0.004907  0.003645 -0.001762)

* The epsilon (eps) is given for a Dirac delta lineshape.
** The dipole moment derivative (T) already includes vibrational overlap.

The first frequency considered to be a vibration is 7
The total number of vibrations considered is 17


--------------------------
THERMOCHEMISTRY AT 298.15K
--------------------------

Temperature         ... 298.15 K
Pressure            ... 1.00 atm
Total Mass          ... 63.05 AMU

Throughout the following assumptions are being made:
  (1) The electronic state is orbitally nondegenerate
      but the spin degeneracy is treated
  (2) There are no thermally accessible electronically excited states
  (3) Hindered rotations indicated by low frequency modes are not
      treated as such but are treated as vibrations and this may
      cause some error
  (4) All equations used are the standard statistical mechanics
      equations for an ideal gas
  (5) All vibrations are strictly harmonic

freq.     156.24  E(vib)   ...       0.40 
freq.     348.54  E(vib)   ...       0.23 
freq.     486.22  E(vib)   ...       0.15 
freq.     563.09  E(vib)   ...       0.11 
freq.     704.63  E(vib)   ...       0.07 
freq.     972.09  E(vib)   ...       0.03 
freq.    1010.24  E(vib)   ...       0.02 
freq.    1078.69  E(vib)   ...       0.02 
freq.    1147.32  E(vib)   ...       0.01 
freq.    1443.62  E(vib)   ...       0.00 
freq.    1528.80  E(vib)   ...       0.00 
freq.    1539.75  E(vib)   ...       0.00 
freq.    1591.75  E(vib)   ...       0.00 
freq.    2036.22  E(vib)   ...       0.00 
freq.    3138.95  E(vib)   ...       0.00 
freq.    3238.11  E(vib)   ...       0.00 
freq.    3266.71  E(vib)   ...       0.00 

------------
INNER ENERGY
------------

The inner energy is: U= E(el) + E(ZPE) + E(vib) + E(rot) + E(trans)
    E(el)   - is the total energy from the electronic structure calculation
              = E(kin-el) + E(nuc-el) + E(el-el) + E(nuc-nuc)
    E(ZPE)  - the the zero temperature vibrational energy from the frequency calculation
    E(vib)  - the the finite temperature correction to E(ZPE) due to population
              of excited vibrational states
    E(rot)  - is the rotational thermal energy
    E(trans)- is the translational thermal energy

Summary of contributions to the inner energy U:
Electronic energy                ...   -252.83404574 Eh
Zero point energy                ...      0.05524782 Eh      34.67 kcal/mol
Thermal vibrational correction   ...      0.00166513 Eh       1.04 kcal/mol
Thermal rotational correction    ...      0.00141627 Eh       0.89 kcal/mol
Thermal translational correction ...      0.00141627 Eh       0.89 kcal/mol
-----------------------------------------------------------------------
Total thermal energy                   -252.77430025 Eh


Summary of corrections to the electronic energy:
(perhaps to be used in another calculation)
Total thermal correction                  0.00449767 Eh       2.82 kcal/mol
Non-thermal (ZPE) correction              0.05524782 Eh      34.67 kcal/mol
-----------------------------------------------------------------------
Total correction                          0.05974550 Eh      37.49 kcal/mol


--------
ENTHALPY
--------

The enthalpy is H = U + kB*T
                kB is Boltzmann's constant
Total free energy                 ...   -252.77430025 Eh 
Thermal Enthalpy correction       ...      0.00094421 Eh       0.59 kcal/mol
-----------------------------------------------------------------------
Total Enthalpy                    ...   -252.77335604 Eh


Note: Only C1 symmetry has been detected, increase convergence thresholds 
      if your molecule has a higher symmetry. Symmetry factor of 1.0 is   
      used for the rotational entropy correction. 
 

Note: Rotational entropy computed according to Herzberg 
Infrared and Raman Spectra, Chapter V,1, Van Nostrand Reinhold, 1945 
Point Group:  C1, Symmetry Number:   1  
Rotational constants in cm-1:     0.319699     0.278056     0.158434 

Vibrational entropy computed according to the QRRHO of S. Grimme
Chem.Eur.J. 2012 18 9955


-------
ENTROPY
-------

The entropy contributions are T*S = T*(S(el)+S(vib)+S(rot)+S(trans))
     S(el)   - electronic entropy
     S(vib)  - vibrational entropy
     S(rot)  - rotational entropy
     S(trans)- translational entropy
The entropies will be listed as multiplied by the temperature to get
units of energy

Electronic entropy                ...      0.00065446 Eh      0.41 kcal/mol
Vibrational entropy               ...      0.00266863 Eh      1.67 kcal/mol
Rotational entropy                ...      0.01152320 Eh      7.23 kcal/mol
Translational entropy             ...      0.01821802 Eh     11.43 kcal/mol
-----------------------------------------------------------------------
Final entropy term                ...      0.03306431 Eh     20.75 kcal/mol

In case the symmetry of your molecule has not been determined correctly
or in case you have a reason to use a different symmetry number we print 
out the resulting rotational entropy values for sn=1,12 :
 --------------------------------------------------------
|  sn= 1 | S(rot)=       0.01152320 Eh      7.23 kcal/mol|
|  sn= 2 | S(rot)=       0.01086875 Eh      6.82 kcal/mol|
|  sn= 3 | S(rot)=       0.01048591 Eh      6.58 kcal/mol|
|  sn= 4 | S(rot)=       0.01021429 Eh      6.41 kcal/mol|
|  sn= 5 | S(rot)=       0.01000360 Eh      6.28 kcal/mol|
|  sn= 6 | S(rot)=       0.00983146 Eh      6.17 kcal/mol|
|  sn= 7 | S(rot)=       0.00968591 Eh      6.08 kcal/mol|
|  sn= 8 | S(rot)=       0.00955983 Eh      6.00 kcal/mol|
|  sn= 9 | S(rot)=       0.00944862 Eh      5.93 kcal/mol|
|  sn=10 | S(rot)=       0.00934915 Eh      5.87 kcal/mol|
|  sn=11 | S(rot)=       0.00925916 Eh      5.81 kcal/mol|
|  sn=12 | S(rot)=       0.00917700 Eh      5.76 kcal/mol|
 --------------------------------------------------------


-------------------
GIBBS FREE ENERGY
-------------------

The Gibbs free energy is G = H - T*S

Total enthalpy                    ...   -252.77335604 Eh 
Total entropy correction          ...     -0.03306431 Eh    -20.75 kcal/mol
-----------------------------------------------------------------------
Final Gibbs free energy         ...   -252.80642035 Eh

For completeness - the Gibbs free energy minus the electronic energy
G-E(el)                           ...      0.02762540 Eh     17.34 kcal/mol



Timings for individual modules:

Sum of individual times         ...     2009.791 sec (=  33.497 min)
GTO integral calculation        ...       17.549 sec (=   0.292 min)   0.9 %
SCF iterations                  ...      457.721 sec (=   7.629 min)  22.8 %
MP2 module                      ...      567.705 sec (=   9.462 min)  28.2 %
Geometry relaxation             ...        2.609 sec (=   0.043 min)   0.1 %
Numerical frequency calculation ...      964.207 sec (=  16.070 min)  48.0 %
                             ****ORCA TERMINATED NORMALLY****
TOTAL RUN TIME: 0 days 0 hours 33 minutes 31 seconds 210 msec
