
                                 *****************
                                 * O   R   C   A *
                                 *****************

                                            #,                                       
                                            ###                                      
                                            ####                                     
                                            #####                                    
                                            ######                                   
                                           ########,                                 
                                     ,,################,,,,,                         
                               ,,#################################,,                 
                          ,,##########################################,,             
                       ,#########################################, ''#####,          
                    ,#############################################,,   '####,        
                  ,##################################################,,,,####,       
                ,###########''''           ''''###############################       
              ,#####''   ,,,,##########,,,,          '''####'''          '####       
            ,##' ,,,,###########################,,,                        '##       
           ' ,,###''''                  '''############,,,                           
         ,,##''                                '''############,,,,        ,,,,,,###''
      ,#''                                            '''#######################'''  
     '                                                          ''''####''''         
             ,#######,   #######,   ,#######,      ##                                
            ,#'     '#,  ##    ##  ,#'     '#,    #''#        ######   ,####,        
            ##       ##  ##   ,#'  ##            #'  '#       #        #'  '#        
            ##       ##  #######   ##           ,######,      #####,   #    #        
            '#,     ,#'  ##    ##  '#,     ,#' ,#      #,         ##   #,  ,#        
             '#######'   ##     ##  '#######'  #'      '#     #####' # '####'        



                  #######################################################
                  #                        -***-                        #
                  #          Department of theory and spectroscopy      #
                  #    Directorship and core code : Frank Neese         #
                  #        Max Planck Institute fuer Kohlenforschung    #
                  #                Kaiser Wilhelm Platz 1               #
                  #                 D-45470 Muelheim/Ruhr               #
                  #                      Germany                        #
                  #                                                     #
                  #                  All rights reserved                #
                  #                        -***-                        #
                  #######################################################


                         Program Version 5.0.1 -  RELEASE  -


 With contributions from (in alphabetic order):
   Daniel Aravena         : Magnetic Suceptibility
   Michael Atanasov       : Ab Initio Ligand Field Theory (pilot matlab implementation)
   Alexander A. Auer      : GIAO ZORA, VPT2 properties, NMR spectrum
   Ute Becker             : Parallelization
   Giovanni Bistoni       : ED, misc. LED, open-shell LED, HFLD
   Martin Brehm           : Molecular dynamics
   Dmytro Bykov           : SCF Hessian
   Vijay G. Chilkuri      : MRCI spin determinant printing, contributions to CSF-ICE
   Dipayan Datta          : RHF DLPNO-CCSD density
   Achintya Kumar Dutta   : EOM-CC, STEOM-CC
   Dmitry Ganyushin       : Spin-Orbit,Spin-Spin,Magnetic field MRCI
   Miquel Garcia          : C-PCM and meta-GGA Hessian, CC/C-PCM, Gaussian charge scheme
   Yang Guo               : DLPNO-NEVPT2, F12-NEVPT2, CIM, IAO-localization
   Andreas Hansen         : Spin unrestricted coupled pair/coupled cluster methods
   Benjamin Helmich-Paris : MC-RPA, TRAH-SCF, COSX integrals
   Lee Huntington         : MR-EOM, pCC
   Robert Izsak           : Overlap fitted RIJCOSX, COSX-SCS-MP3, EOM
   Marcus Kettner         : VPT2
   Christian Kollmar      : KDIIS, OOCD, Brueckner-CCSD(T), CCSD density, CASPT2, CASPT2-K
   Simone Kossmann        : Meta GGA functionals, TD-DFT gradient, OOMP2, MP2 Hessian
   Martin Krupicka        : Initial AUTO-CI
   Lucas Lang             : DCDCAS
   Marvin Lechner         : AUTO-CI (C++ implementation), FIC-MRCC
   Dagmar Lenk            : GEPOL surface, SMD
   Dimitrios Liakos       : Extrapolation schemes; Compound Job, initial MDCI parallelization
   Dimitrios Manganas     : Further ROCIS development; embedding schemes
   Dimitrios Pantazis     : SARC Basis sets
   Anastasios Papadopoulos: AUTO-CI, single reference methods and gradients
   Taras Petrenko         : DFT Hessian,TD-DFT gradient, ASA, ECA, R-Raman, ABS, FL, XAS/XES, NRVS
   Peter Pinski           : DLPNO-MP2, DLPNO-MP2 Gradient
   Christoph Reimann      : Effective Core Potentials
   Marius Retegan         : Local ZFS, SOC
   Christoph Riplinger    : Optimizer, TS searches, QM/MM, DLPNO-CCSD(T), (RO)-DLPNO pert. Triples
   Tobias Risthaus        : Range-separated hybrids, TD-DFT gradient, RPA, STAB
   Michael Roemelt        : Original ROCIS implementation
   Masaaki Saitow         : Open-shell DLPNO-CCSD energy and density
   Barbara Sandhoefer     : DKH picture change effects
   Avijit Sen             : IP-ROCIS
   Kantharuban Sivalingam : CASSCF convergence, NEVPT2, FIC-MRCI
   Bernardo de Souza      : ESD, SOC TD-DFT
   Georgi Stoychev        : AutoAux, RI-MP2 NMR, DLPNO-MP2 response
   Willem Van den Heuvel  : Paramagnetic NMR
   Boris Wezisla          : Elementary symmetry handling
   Frank Wennmohs         : Technical directorship


 We gratefully acknowledge several colleagues who have allowed us to
 interface, adapt or use parts of their codes:
   Stefan Grimme, W. Hujo, H. Kruse, P. Pracht,  : VdW corrections, initial TS optimization,
                  C. Bannwarth, S. Ehlert          DFT functionals, gCP, sTDA/sTD-DF
   Ed Valeev, F. Pavosevic, A. Kumar             : LibInt (2-el integral package), F12 methods
   Garnet Chan, S. Sharma, J. Yang, R. Olivares  : DMRG
   Ulf Ekstrom                                   : XCFun DFT Library
   Mihaly Kallay                                 : mrcc  (arbitrary order and MRCC methods)
   Jiri Pittner, Ondrej Demel                    : Mk-CCSD
   Frank Weinhold                                : gennbo (NPA and NBO analysis)
   Christopher J. Cramer and Donald G. Truhlar   : smd solvation model
   Lars Goerigk                                  : TD-DFT with DH, B97 family of functionals
   V. Asgeirsson, H. Jonsson                     : NEB implementation
   FAccTs GmbH                                   : IRC, NEB, NEB-TS, DLPNO-Multilevel, CI-OPT
                                                   MM, QMMM, 2- and 3-layer-ONIOM, Crystal-QMMM,
                                                   LR-CPCM, SF, NACMEs, symmetry and pop. for TD-DFT,
                                                   nearIR, NL-DFT gradient (VV10), updates on ESD,
                                                   ML-optimized integration grids
   S Lehtola, MJT Oliveira, MAL Marques          : LibXC Library
   Liviu Ungur et al                             : ANISO software


 Your calculation uses the libint2 library for the computation of 2-el integrals
 For citations please refer to: http://libint.valeyev.net

 Your ORCA version has been built with support for libXC version: 5.1.0
 For citations please refer to: https://tddft.org/programs/libxc/

 This ORCA versions uses:
   CBLAS   interface :  Fast vector & matrix operations
   LAPACKE interface :  Fast linear algebra routines
   SCALAPACK package :  Parallel linear algebra routines
   Shared memory     :  Shared parallel matrices
   BLAS/LAPACK       :  OpenBLAS 0.3.15  USE64BITINT DYNAMIC_ARCH NO_AFFINITY Zen SINGLE_THREADED
        Core in use  :  Zen
   Copyright (c) 2011-2014, The OpenBLAS Project




***************************************
The coordinates will be read from file: input.xyz
***************************************


================================================================================

----- Orbital basis set information -----
Your calculation utilizes the basis: 6-31G(d)
   H-He, Li-Ne : W. J. Hehre, R. Ditchfield and J.A. Pople, J. Chem. Phys. 56, 2257 (1972).
                 Note: He and Ne are unpublished basis sets taken from the Gaussian program.
                 Note: Li and B from J. D. Dill and J. A. Pople, J. Chem. Phys. 62, 2921 (1975).
   Na - Ar     : M. M. Francl, W. J. Pietro, W. J. Hehre, J. S. Binkley, M. S. Gordon, 
                 D. J. DeFrees and J. A. Pople, J. Chem. Phys. 77, 3654 (1982).
   K - Zn      : V. A. Rassolov, J. A. Pople, M. A. Ratner, and T. L. Windus, J. Chem. Phys. 109, 1223 (1998).

================================================================================
                                        WARNINGS
                       Please study these warnings very carefully!
================================================================================


WARNING: Geometry Optimization
  ===> : Switching off AutoStart
         For restart on a previous wavefunction, please use MOREAD

WARNING: Post HF methods need fully converged wavefunctions
  ===> : Setting SCFConvForced true
         You can overwrite this default with %scf ConvForced false 


INFO   : the flag for use of the SHARK integral package has been found!

================================================================================
                                       INPUT FILE
================================================================================
NAME = input.orc
|  1> ! MP2 UHF 6-31G(d) OPTTS NumFreq NoFrozenCore VERYTIGHTSCF VERYTIGHTOPT
|  2> 
|  3> * XYZfile 0 2 input.xyz
|  4> 
|  5>                          ****END OF INPUT****
================================================================================

                       *****************************
                       * Geometry Optimization Run *
                       *****************************

Geometry optimization settings:
Update method            Update   .... Bofill
Choice of coordinates    CoordSys .... Z-matrix Internals
Initial Hessian          InHess   .... Almoef's Model

Convergence Tolerances:
Energy Change            TolE     ....  2.0000e-07 Eh
Max. Gradient            TolMAXG  ....  3.0000e-05 Eh/bohr
RMS Gradient             TolRMSG  ....  8.0000e-06 Eh/bohr
Max. Displacement        TolMAXD  ....  2.0000e-04 bohr
RMS Displacement         TolRMSD  ....  1.0000e-04 bohr
Strict Convergence                ....  False
------------------------------------------------------------------------------
                        ORCA OPTIMIZATION COORDINATE SETUP
------------------------------------------------------------------------------

The optimization will be done in new redundant internal coordinates
Making redundant internal coordinates   ...  (new redundants) done
Following TS mode number                ...     0
Evaluating the initial hessian          ...  (Almloef) done
Evaluating the coordinates              ...  done
Calculating the B-matrix                .... done
Calculating the G-matrix                .... done
Diagonalizing the G-matrix              .... done
The first mode is                       ....    7
The number of degrees of freedom        ....   18

    -----------------------------------------------------------------
                    Redundant Internal Coordinates


    -----------------------------------------------------------------
         Definition                    Initial Value    Approx d2E/dq
    -----------------------------------------------------------------
      1. B(H   1,C   0)                  1.0948         0.353786   
      2. B(C   2,C   0)                  1.5132         0.397413   
      3. B(O   4,C   2)                  1.2088         1.088849   
      4. B(H   5,C   0)                  1.0929         0.356257   
      5. B(F   6,C   0)                  1.3844         0.530688   
      6. B(H   7,F   3)                  1.4814         0.071146   
      7. B(H   7,C   2)                  1.1537         0.284939   
      8. A(C   2,C   0,H   5)          109.5730         0.327058   
      9. A(H   1,C   0,H   5)          109.7296         0.289545   
     10. A(H   1,C   0,F   6)          109.3498         0.339268   
     11. A(H   1,C   0,C   2)          108.9687         0.326683   
     12. A(C   2,C   0,F   6)          109.1437         0.386081   
     13. A(H   5,C   0,F   6)          110.0554         0.339662   
     14. A(C   0,C   2,O   4)          125.2927         0.440523   
     15. A(O   4,C   2,H   7)          121.9557         0.370975   
     16. A(C   0,C   2,H   7)          112.7230         0.315321   
     17. A(C   2,H   7,F   3)          127.2512         0.219025   
     18. D(O   4,C   2,C   0,H   1)    -77.9585         0.011728   
     19. D(H   7,C   2,C   0,H   1)    100.1185         0.011728   
     20. D(O   4,C   2,C   0,H   5)     42.1122         0.011728   
     21. D(H   7,C   2,C   0,H   5)   -139.8108         0.011728   
     22. D(H   7,C   2,C   0,F   6)    -19.2343         0.011728   
     23. D(O   4,C   2,C   0,F   6)    162.6888         0.011728   
     24. D(F   3,H   7,C   2,C   0)    -76.6741         0.062619   
     25. D(F   3,H   7,C   2,O   4)    101.4759         0.062619   
    -----------------------------------------------------------------

Number of atoms                         .... 8
Number of degrees of freedom            .... 25

Time needed for optimization step       :     2.20 sec

         *************************************************************
         *                GEOMETRY OPTIMIZATION CYCLE   1            *
         *************************************************************
---------------------------------
CARTESIAN COORDINATES (ANGSTROEM)
---------------------------------
  C      0.912073    0.261570    0.196119
  H      1.363107   -0.589784   -0.323865
  C      0.534142    1.315528   -0.821722
  F     -1.285107    0.331853   -1.969584
  O      1.302964    2.085790   -1.347848
  H      1.627696    0.680221    0.908222
  F     -0.228085   -0.158020    0.859937
  H     -0.588488    1.296517   -1.087099

----------------------------
CARTESIAN COORDINATES (A.U.)
----------------------------
  NO LB      ZA    FRAG     MASS         X           Y           Z
   0 C     6.0000    0    12.011    1.723568    0.494296    0.370611
   1 H     1.0000    0     1.008    2.575899   -1.114531   -0.612017
   2 C     6.0000    0    12.011    1.009383    2.485988   -1.552830
   3 F     9.0000    0    18.998   -2.428500    0.627112   -3.721974
   4 O     8.0000    0    15.999    2.462245    3.941573   -2.547063
   5 H     1.0000    0     1.008    3.075900    1.285432    1.716290
   6 F     9.0000    0    18.998   -0.431019   -0.298614    1.625045
   7 H     1.0000    0     1.008   -1.112081    2.450061   -2.054319

--------------------------------
INTERNAL COORDINATES (ANGSTROEM)
--------------------------------
 C      0   0   0     0.000000000000     0.00000000     0.00000000
 H      1   0   0     1.094815177098     0.00000000     0.00000000
 C      1   2   0     1.513161745387   108.96868813     0.00000000
 F      3   1   2     2.365347782892   103.23018320    70.22854343
 O      3   1   2     1.208800609817   125.29267667   282.04152509
 H      1   2   3     1.092920447360   109.72962915   240.02612630
 F      1   2   3     1.384439016933   109.34977640   119.22444583
 H      3   1   2     1.153726418146   112.72295120   100.11849192

---------------------------
INTERNAL COORDINATES (A.U.)
---------------------------
 C      0   0   0     0.000000000000     0.00000000     0.00000000
 H      1   0   0     2.068900851977     0.00000000     0.00000000
 C      1   2   0     2.859461295108   108.96868813     0.00000000
 F      3   1   2     4.469859521143   103.23018320    70.22854343
 O      3   1   2     2.284302103072   125.29267667   282.04152509
 H      1   2   3     2.065320331674   109.72962915   240.02612630
 F      1   2   3     2.616210591118   109.34977640   119.22444583
 H      3   1   2     2.180226963765   112.72295120   100.11849192

---------------------
BASIS SET INFORMATION
---------------------
There are 4 groups of distinct atoms

 Group   1 Type C   : 10s4p1d contracted to 3s2p1d pattern {631/31/1}
 Group   2 Type H   : 4s contracted to 2s pattern {31}
 Group   3 Type F   : 10s4p1d contracted to 3s2p1d pattern {631/31/1}
 Group   4 Type O   : 10s4p1d contracted to 3s2p1d pattern {631/31/1}

Atom   0C    basis set group =>   1
Atom   1H    basis set group =>   2
Atom   2C    basis set group =>   1
Atom   3F    basis set group =>   3
Atom   4O    basis set group =>   4
Atom   5H    basis set group =>   2
Atom   6F    basis set group =>   3
Atom   7H    basis set group =>   2
------------------------------------------------------------------------------
                           ORCA GTO INTEGRAL CALCULATION
------------------------------------------------------------------------------
------------------------------------------------------------------------------
                   ___                                                        
                  /   \      - P O W E R E D   B Y -                         
                 /     \                                                     
                 |  |  |   _    _      __       _____    __    __             
                 |  |  |  | |  | |    /  \     |  _  \  |  |  /  |          
                  \  \/   | |  | |   /    \    | | | |  |  | /  /          
                 / \  \   | |__| |  /  /\  \   | |_| |  |  |/  /          
                |  |  |   |  __  | /  /__\  \  |    /   |      \           
                |  |  |   | |  | | |   __   |  |    \   |  |\   \          
                \     /   | |  | | |  |  |  |  | |\  \  |  | \   \       
                 \___/    |_|  |_| |__|  |__|  |_| \__\ |__|  \__/        
                                                                              
                      - O R C A' S   B I G   F R I E N D -                    
                                      &                                       
                       - I N T E G R A L  F E E D E R -                       
                                                                              
 v1 FN, 2020, v2 2021                                                         
------------------------------------------------------------------------------


Reading SHARK input file input.SHARKINP.tmp ... ok
----------------------
SHARK INTEGRAL PACKAGE
----------------------

Number of atoms                             ...      8
Number of basis functions                   ...     76
Number of shells                            ...     36
Maximum angular momentum                    ...      2
Integral batch strategy                     ... SHARK/LIBINT Hybrid
RI-J (if used) integral strategy            ... SPLIT-RIJ (Revised 2003 algorithm where possible)
Printlevel                                  ...      1
Contraction scheme used                     ... SEGMENTED contraction
Coulomb Range Separation                    ... NOT USED
Exchange Range Separation                   ... NOT USED
Finite Nucleus Model                        ... NOT USED
Auxiliary Coulomb fitting basis             ... NOT available
Auxiliary J/K fitting basis                 ... NOT available
Auxiliary Correlation fitting basis         ... NOT available
Auxiliary 'external' fitting basis          ... NOT available
Integral threshold                          ...     1.000000e-12
Primitive cut-off                           ...     1.000000e-14
Primitive pair pre-selection threshold      ...     1.000000e-14

Calculating pre-screening integrals         ... done (  0.0 sec) Dimension = 36
Organizing shell pair data                  ... done (  0.1 sec)
Shell pair information
Total number of shell pairs                 ...       666
Shell pairs after pre-screening             ...       646
Total number of primitive shell pairs       ...      3942
Primitive shell pairs kept                  ...      2770
          la=0 lb=0:    216 shell pairs
          la=1 lb=0:    205 shell pairs
          la=1 lb=1:     55 shell pairs
          la=2 lb=0:    105 shell pairs
          la=2 lb=1:     50 shell pairs
          la=2 lb=2:     15 shell pairs

Calculating one electron integrals          ... done (  0.0 sec)
Calculating Nuclear repulsion               ... done (  0.0 sec) ENN=    166.190250729329 Eh

SHARK setup successfully completed in   0.4 seconds

Maximum memory used throughout the entire GTOINT-calculation: 7.5 MB
-------------------------------------------------------------------------------
                                 ORCA SCF
-------------------------------------------------------------------------------

------------
SCF SETTINGS
------------
Hamiltonian:
 Ab initio Hamiltonian  Method          .... Hartree-Fock(GTOs)


General Settings:
 Integral files         IntName         .... input
 Hartree-Fock type      HFTyp           .... UHF
 Total Charge           Charge          ....    0
 Multiplicity           Mult            ....    2
 Number of Electrons    NEL             ....   41
 Basis Dimension        Dim             ....   76
 Nuclear Repulsion      ENuc            ....    166.1902507293 Eh

Convergence Acceleration:
 DIIS                   CNVDIIS         .... on
   Start iteration      DIISMaxIt       ....    12
   Startup error        DIISStart       ....  0.200000
   # of expansion vecs  DIISMaxEq       ....     5
   Bias factor          DIISBfac        ....   1.050
   Max. coefficient     DIISMaxC        ....  10.000
 Trust-Rad. Augm. Hess. CNVTRAH         .... auto
   Auto Start mean grad. ratio tolernc. ....  1.125000
   Auto Start start iteration           ....    20
   Auto Start num. interpolation iter.  ....    10
   Max. Number of Micro iterations      ....    16
   Max. Number of Macro iterations      .... Maxiter - #DIIS iter
   Number of Davidson start vectors     ....     2
   Converg. threshold I  (grad. norm)   ....   2.000e-06
   Converg. threshold II (energy diff.) ....   1.000e-09
   Grad. Scal. Fac. for Micro threshold ....   0.100
   Minimum threshold for Micro iter.    ....   0.010
   NR start threshold (gradient norm)   ....   0.001
   Initial trust radius                 ....   0.400
   Minimum AH scaling param. (alpha)    ....   1.000
   Maximum AH scaling param. (alpha)    .... 1000.000
   Orbital update algorithm             .... Taylor
   White noise on init. David. guess    .... on
   Maximum white noise                  ....   0.010
   Quad. conv. algorithm                .... NR
 SOSCF                  CNVSOSCF        .... off
 Level Shifting         CNVShift        .... on
   Level shift para.    LevelShift      ....    0.2500
   Turn off err/grad.   ShiftErr        ....    0.0010
 Zerner damping         CNVZerner       .... off
 Static damping         CNVDamp         .... on
   Fraction old density DampFac         ....    0.7000
   Max. Damping (<1)    DampMax         ....    0.9800
   Min. Damping (>=0)   DampMin         ....    0.0000
   Turn off err/grad.   DampErr         ....    0.1000
 Fernandez-Rico         CNVRico         .... off

SCF Procedure:
 Maximum # iterations   MaxIter         ....   125
 SCF integral mode      SCFMode         .... Direct
   Integral package                     .... SHARK and LIBINT hybrid scheme
 Reset frequency        DirectResetFreq ....    20
 Integral Threshold     Thresh          ....  1.000e-12 Eh
 Primitive CutOff       TCut            ....  1.000e-14 Eh

Convergence Tolerance:
 Convergence Check Mode ConvCheckMode   .... Total+1el-Energy
 Convergence forced     ConvForced      .... 1
 Energy Change          TolE            ....  1.000e-09 Eh
 1-El. energy change                    ....  1.000e-06 Eh
 DIIS Error             TolErr          ....  1.000e-08


Diagonalization of the overlap matrix:
Smallest eigenvalue                        ... 6.604e-03
Time for diagonalization                   ...    0.001 sec
Threshold for overlap eigenvalues          ... 1.000e-08
Number of eigenvalues below threshold      ... 0
Time for construction of square roots      ...    0.170 sec
Total time needed                          ...    0.172 sec

Time for model grid setup =    0.102 sec

------------------------------
INITIAL GUESS: MODEL POTENTIAL
------------------------------
Loading Hartree-Fock densities                     ... done
Calculating cut-offs                               ... done
Initializing the effective Hamiltonian             ... done
Setting up the integral package (SHARK)            ... done
Starting the Coulomb interaction                   ... done (   0.2 sec)
Reading the grid                                   ... done
Mapping shells                                     ... done
Starting the XC term evaluation                    ... done (   0.0 sec)
Transforming the Hamiltonian                       ... done (   0.0 sec)
Diagonalizing the Hamiltonian                      ... done (   0.0 sec)
Back transforming the eigenvectors                 ... done (   0.0 sec)
Now organizing SCF variables                       ... done
                      ------------------
                      INITIAL GUESS DONE (   0.4 sec)
                      ------------------
--------------
SCF ITERATIONS
--------------
ITER       Energy         Delta-E        Max-DP      RMS-DP      [F,P]     Damp
               ***  Starting incremental Fock matrix formation  ***
  0   -350.9111918201   0.000000000000 0.02871991  0.00116540  0.2450558 0.7000
  1   -350.9543399516  -0.043148131523 0.02103417  0.00088213  0.1369223 0.7000
                               ***Turning on DIIS***
  2   -350.9807786351  -0.026438683499 0.04396776  0.00198082  0.0651781 0.0000
  3   -350.8729061094   0.107872525751 0.02099054  0.00085644  0.0642194 0.0000
  4   -351.1003599201  -0.227453810674 0.01173099  0.00059175  0.0116285 0.0000
  5   -351.0546387512   0.045721168871 0.00915246  0.00053990  0.0097756 0.0000
  6   -351.0560602737  -0.001421522523 0.00550622  0.00034718  0.0099576 0.0000
  7   -351.0483595086   0.007700765107 0.00143322  0.00008145  0.0117311 0.0000
  8   -351.0404502386   0.007909269979 0.00122998  0.00006020  0.0155731 0.0000
  9   -351.0390338610   0.001416377663 0.00047304  0.00002675  0.0188866 0.0000
 10   -351.0500126395  -0.010978778555 0.00473405  0.00028387  0.0186255 0.0000
 11   -351.0611333849  -0.011120745362 0.00773576  0.00046181  0.0148185 0.0000
 12   -351.0713772476  -0.010243862730 0.01539627  0.00083886  0.0101122 0.0000
 13   -351.0826589372  -0.011281689606 0.01724649  0.00079054  0.0092871 0.0000
 14   -351.0900622988  -0.007403361583 0.02273070  0.00096648  0.0071984 0.0000
 15   -351.0795762980   0.010486000814 0.00654996  0.00028775  0.0060814 0.0000
 16   -351.0896285364  -0.010052238440 0.01392099  0.00067771  0.0109617 0.0000
 17   -351.0989704705  -0.009341934068 0.00416710  0.00017015  0.0067329 0.0000
 18   -351.0944166483   0.004553822183 0.00216997  0.00009924  0.0011198 0.0000
 19   -351.0929689194   0.001447728947 0.00137835  0.00007567  0.0010393 0.0000
               *** Restarting incremental Fock matrix formation ***
                                   *** Resetting DIIS ***
 20   -351.0932679363  -0.000299016931 0.00090783  0.00003907  0.0009877 0.0000
 21   -351.0933554053  -0.000087469044 0.00063207  0.00002493  0.0009756 0.0000
 22   -351.0932639777   0.000091427674 0.00177036  0.00006036  0.0009471 0.0000
 23   -351.0933161444  -0.000052166785 0.00207708  0.00006094  0.0008635 0.0000
 24   -351.0933661895  -0.000050045074 0.00183055  0.00004877  0.0007585 0.0000
 25   -351.0931806797   0.000185509858 0.00303156  0.00007596  0.0006666 0.0000
 26   -351.0933311411  -0.000150461432 0.00407296  0.00009852  0.0005274 0.0000

 WARNING: the maximum gradient error descreased on average only by a factor   1.1
          during the last 20 iterations

                      *** Initiating the TRAH-SCF procedure ***

 --------------------------------------------------------------------------------------------
   Iter.        energy            ||Error||_2        Shift      TRadius  Mac/Mic        Rej.
 --------------------------------------------------------------------------------------------
    0       -351.093430809788     9.437594e-04                     0.400 (TRAH MAcro)   No
    0     dE    -1.811733e-06     2.619549e-03    -1.8117e-06      0.002 (TRAH MIcro)
    0     dE    -5.602999e-06     1.256687e-03    -5.6028e-06      0.007 (TRAH MIcro)
    0     dE    -6.437072e-06     8.403958e-04    -6.4367e-06      0.008 (TRAH MIcro)
    0     dE    -7.129518e-06     1.358432e-03    -7.1290e-06      0.009 (TRAH MIcro)
    0     dE    -7.932061e-06     9.365705e-04    -7.9312e-06      0.011 (TRAH MIcro)
    0     dE    -8.634366e-06     1.103273e-03    -8.6330e-06      0.013 (TRAH MIcro)
    0     dE    -8.961124e-06     3.448962e-04    -8.9595e-06      0.014 (TRAH MIcro)
    0     dE    -9.024369e-06     2.252055e-04    -9.0226e-06      0.014 (TRAH MIcro)
    0     dE    -9.041688e-06     7.552934e-05    -9.0399e-06      0.014 (TRAH MIcro)
    0     dE    -9.045695e-06     3.925260e-05    -9.0439e-06      0.014 (TRAH MIcro)
    0     dE    -9.047273e-06     3.813882e-05    -9.0455e-06      0.014 (TRAH MIcro)
    0     dE    -9.050439e-06     5.483435e-05    -9.0487e-06      0.014 (TRAH MIcro)
    0     dE    -9.053935e-06     4.069669e-05    -9.0522e-06      0.014 (TRAH MIcro)
    0     dE    -9.054774e-06     1.278029e-05    -9.0530e-06      0.014 (TRAH MIcro)
    1       -351.093439848196     2.964971e-05                           (NR   MAcro)
    1     dE    -5.713858e-10     1.347913e-05                           (NR   MIcro)
    1     dE    -7.009837e-10     7.393693e-06                           (NR   MIcro)
    1     dE    -7.574056e-10     4.178925e-06                           (NR   MIcro)
    1     dE    -7.681979e-10     1.856730e-06                           (NR   MIcro)
    1     dE    -7.732797e-10     1.827609e-06                           (NR   MIcro)
    1     dE    -7.785570e-10     2.084230e-06                           (NR   MIcro)
    1     dE    -7.851840e-10     1.827926e-06                           (NR   MIcro)
    1     dE    -7.882899e-10     1.105072e-06                           (NR   MIcro)
    1     dE    -7.893540e-10     6.455494e-07                           (NR   MIcro)
    1     dE    -7.897989e-10     4.747576e-07                           (NR   MIcro)
    1     dE    -7.899458e-10     2.558826e-07                           (NR   MIcro)
    1     dE    -7.899879e-10     1.095454e-07                           (NR   MIcro)
    2       -351.093439848986     1.095430e-07                           (NR   MAcro)

               *****************************************************
               *                     SUCCESS                       *
               *           SCF CONVERGED AFTER  56 CYCLES          *
               *****************************************************


----------------
TOTAL SCF ENERGY
----------------

Total Energy       :         -351.09343985 Eh           -9553.73820 eV

Components:
Nuclear Repulsion  :          166.19025073 Eh            4522.26663 eV
Electronic Energy  :         -517.28369058 Eh          -14076.00483 eV
One Electron Energy:         -816.08689948 Eh          -22206.85351 eV
Two Electron Energy:          298.80320891 Eh            8130.84868 eV

Virial components:
Potential Energy   :         -701.94923481 Eh          -19101.00976 eV
Kinetic Energy     :          350.85579496 Eh            9547.27155 eV
Virial Ratio       :            2.00067733


---------------
SCF CONVERGENCE
---------------

  Last Energy change         ...   -7.9035e-10  Tolerance :   1.0000e-09
  Last Orbital Gradient      ...    1.0954e-07  Tolerance :   2.0000e-06
  Last Orbital Rotation      ...    5.5814e-05

             **** THE GBW FILE WAS UPDATED (input.gbw) ****
             **** DENSITY input.scfp WAS UPDATED ****
             **** ENERGY FILE WAS UPDATED (input.en.tmp) ****
----------------------
UHF SPIN CONTAMINATION
----------------------

Expectation value of <S**2>     :     0.766640
Ideal value S*(S+1) for S=0.5   :     0.750000
Deviation                       :     0.016640

             **** THE GBW FILE WAS UPDATED (input.gbw) ****
             **** DENSITY input.scfp WAS UPDATED ****
----------------
ORBITAL ENERGIES
----------------
                 SPIN UP ORBITALS
  NO   OCC          E(Eh)            E(eV) 
   0   1.0000     -26.404333      -718.4984 
   1   1.0000     -26.302608      -715.7304 
   2   1.0000     -20.597689      -560.4916 
   3   1.0000     -11.366719      -309.3041 
   4   1.0000     -11.341881      -308.6283 
   5   1.0000      -1.670393       -45.4537 
   6   1.0000      -1.611291       -43.8455 
   7   1.0000      -1.422864       -38.7181 
   8   1.0000      -1.032836       -28.1049 
   9   1.0000      -0.894846       -24.3500 
  10   1.0000      -0.800541       -21.7838 
  11   1.0000      -0.733608       -19.9625 
  12   1.0000      -0.728083       -19.8121 
  13   1.0000      -0.723019       -19.6743 
  14   1.0000      -0.719403       -19.5760 
  15   1.0000      -0.702047       -19.1037 
  16   1.0000      -0.645365       -17.5613 
  17   1.0000      -0.600753       -16.3473 
  18   1.0000      -0.584738       -15.9115 
  19   1.0000      -0.521710       -14.1964 
  20   1.0000      -0.439638       -11.9632 
  21   0.0000       0.124650         3.3919 
  22   0.0000       0.237098         6.4518 
  23   0.0000       0.272319         7.4102 
  24   0.0000       0.310503         8.4492 
  25   0.0000       0.348385         9.4800 
  26   0.0000       0.432960        11.7814 
  27   0.0000       0.455514        12.3952 
  28   0.0000       0.721047        19.6207 
  29   0.0000       0.748183        20.3591 
  30   0.0000       0.771714        20.9994 
  31   0.0000       0.846182        23.0258 
  32   0.0000       0.877693        23.8832 
  33   0.0000       0.939720        25.5711 
  34   0.0000       0.975923        26.5562 
  35   0.0000       1.007858        27.4252 
  36   0.0000       1.069605        29.1054 
  37   0.0000       1.118548        30.4372 
  38   0.0000       1.148433        31.2504 
  39   0.0000       1.275596        34.7107 
  40   0.0000       1.319278        35.8994 
  41   0.0000       1.335688        36.3459 
  42   0.0000       1.443838        39.2888 
  43   0.0000       1.462898        39.8075 
  44   0.0000       1.492172        40.6041 
  45   0.0000       1.536391        41.8073 
  46   0.0000       1.557072        42.3701 
  47   0.0000       1.627290        44.2808 
  48   0.0000       1.698406        46.2160 
  49   0.0000       1.740371        47.3579 
  50   0.0000       1.807881        49.1949 
  51   0.0000       1.892421        51.4954 
  52   0.0000       1.898309        51.6556 
  53   0.0000       1.951973        53.1159 
  54   0.0000       2.022741        55.0416 
  55   0.0000       2.047946        55.7274 
  56   0.0000       2.091875        56.9228 
  57   0.0000       2.092737        56.9463 
  58   0.0000       2.101543        57.1859 
  59   0.0000       2.123438        57.7817 
  60   0.0000       2.161679        58.8223 
  61   0.0000       2.202420        59.9309 
  62   0.0000       2.259740        61.4907 
  63   0.0000       2.296648        62.4950 
  64   0.0000       2.314100        62.9699 
  65   0.0000       2.404754        65.4367 
  66   0.0000       2.421831        65.9014 
  67   0.0000       2.482791        67.5602 
  68   0.0000       2.563990        69.7697 
  69   0.0000       2.657828        72.3232 
  70   0.0000       2.737288        74.4854 
  71   0.0000       2.927532        79.6622 
  72   0.0000       3.006355        81.8071 
  73   0.0000       3.144173        85.5573 
  74   0.0000       3.337325        90.8132 
  75   0.0000       3.403531        92.6148 

                 SPIN DOWN ORBITALS
  NO   OCC          E(Eh)            E(eV) 
   0   1.0000     -26.357488      -717.2237 
   1   1.0000     -26.302719      -715.7334 
   2   1.0000     -20.595599      -560.4348 
   3   1.0000     -11.361681      -309.1671 
   4   1.0000     -11.341170      -308.6089 
   5   1.0000      -1.611575       -43.8532 
   6   1.0000      -1.495154       -40.6852 
   7   1.0000      -1.416921       -38.5564 
   8   1.0000      -1.026460       -27.9314 
   9   1.0000      -0.827689       -22.5226 
  10   1.0000      -0.730275       -19.8718 
  11   1.0000      -0.719877       -19.5889 
  12   1.0000      -0.701722       -19.0948 
  13   1.0000      -0.678854       -18.4726 
  14   1.0000      -0.675776       -18.3888 
  15   1.0000      -0.651391       -17.7252 
  16   1.0000      -0.596885       -16.2421 
  17   1.0000      -0.581836       -15.8326 
  18   1.0000      -0.521041       -14.1782 
  19   1.0000      -0.442003       -12.0275 
  20   0.0000       0.039969         1.0876 
  21   0.0000       0.138031         3.7560 
  22   0.0000       0.238666         6.4944 
  23   0.0000       0.276003         7.5104 
  24   0.0000       0.311445         8.4749 
  25   0.0000       0.370154        10.0724 
  26   0.0000       0.439040        11.9469 
  27   0.0000       0.458462        12.4754 
  28   0.0000       0.723475        19.6868 
  29   0.0000       0.754260        20.5245 
  30   0.0000       0.774929        21.0869 
  31   0.0000       0.850497        23.1432 
  32   0.0000       0.882521        24.0146 
  33   0.0000       0.945199        25.7202 
  34   0.0000       0.980097        26.6698 
  35   0.0000       1.032771        28.1031 
  36   0.0000       1.070482        29.1293 
  37   0.0000       1.121254        30.5109 
  38   0.0000       1.149523        31.2801 
  39   0.0000       1.278427        34.7878 
  40   0.0000       1.328975        36.1633 
  41   0.0000       1.337633        36.3988 
  42   0.0000       1.483494        40.3679 
  43   0.0000       1.499532        40.8043 
  44   0.0000       1.534871        41.7660 
  45   0.0000       1.550866        42.2012 
  46   0.0000       1.622100        44.1396 
  47   0.0000       1.633089        44.4386 
  48   0.0000       1.699709        46.2514 
  49   0.0000       1.752354        47.6840 
  50   0.0000       1.812697        49.3260 
  51   0.0000       1.907669        51.9103 
  52   0.0000       1.960543        53.3491 
  53   0.0000       1.979578        53.8671 
  54   0.0000       2.034151        55.3521 
  55   0.0000       2.066140        56.2225 
  56   0.0000       2.096793        57.0566 
  57   0.0000       2.104782        57.2740 
  58   0.0000       2.107772        57.3554 
  59   0.0000       2.139492        58.2185 
  60   0.0000       2.203675        59.9650 
  61   0.0000       2.252123        61.2834 
  62   0.0000       2.283922        62.1487 
  63   0.0000       2.312039        62.9138 
  64   0.0000       2.332155        63.4612 
  65   0.0000       2.409093        65.5548 
  66   0.0000       2.432346        66.1875 
  67   0.0000       2.493758        67.8586 
  68   0.0000       2.565655        69.8150 
  69   0.0000       2.663111        72.4669 
  70   0.0000       2.738928        74.5300 
  71   0.0000       2.929900        79.7266 
  72   0.0000       3.010965        81.9325 
  73   0.0000       3.150038        85.7169 
  74   0.0000       3.339567        90.8742 
  75   0.0000       3.405157        92.6590 

                    ********************************
                    * MULLIKEN POPULATION ANALYSIS *
                    ********************************

--------------------------------------------
MULLIKEN ATOMIC CHARGES AND SPIN POPULATIONS
--------------------------------------------
   0 C :    0.070475    0.016442
   1 H :    0.205397    0.001322
   2 C :    0.267448    0.137827
   3 F :   -0.065928    0.905680
   4 O :   -0.477259    0.032284
   5 H :    0.209336   -0.000756
   6 F :   -0.444142   -0.001407
   7 H :    0.234673   -0.091391
Sum of atomic charges         :   -0.0000000
Sum of atomic spin populations:    1.0000000

-----------------------------------------------------
MULLIKEN REDUCED ORBITAL CHARGES AND SPIN POPULATIONS
-----------------------------------------------------
CHARGE
  0 C s       :     3.200249  s :     3.200249
      pz      :     0.931332  p :     2.650706
      px      :     0.715703
      py      :     1.003671
      dz2     :     0.006441  d :     0.078570
      dxz     :     0.022477
      dyz     :     0.019838
      dx2y2   :     0.013268
      dxy     :     0.016546
  1 H s       :     0.794603  s :     0.794603
  2 C s       :     3.192691  s :     3.192691
      pz      :     0.743911  p :     2.439410
      px      :     0.952383
      py      :     0.743117
      dz2     :     0.016128  d :     0.100451
      dxz     :     0.014497
      dyz     :     0.018913
      dx2y2   :     0.033988
      dxy     :     0.016926
  3 F s       :     3.999690  s :     3.999690
      pz      :     1.720859  p :     5.062787
      px      :     1.674888
      py      :     1.667040
      dz2     :     0.000077  d :     0.003450
      dxz     :     0.000989
      dyz     :     0.001177
      dx2y2   :     0.000083
      dxy     :     0.001125
  4 O s       :     3.879793  s :     3.879793
      pz      :     1.503927  p :     4.564171
      px      :     1.632468
      py      :     1.427776
      dz2     :     0.006022  d :     0.033295
      dxz     :     0.007068
      dyz     :     0.004788
      dx2y2   :     0.007762
      dxy     :     0.007656
  5 H s       :     0.790664  s :     0.790664
  6 F s       :     3.979805  s :     3.979805
      pz      :     1.862589  p :     5.447419
      px      :     1.664390
      py      :     1.920439
      dz2     :     0.001743  d :     0.016918
      dxz     :     0.005959
      dyz     :     0.001666
      dx2y2   :     0.004008
      dxy     :     0.003541
  7 H s       :     0.765327  s :     0.765327

SPIN
  0 C s       :     0.000628  s :     0.000628
      pz      :     0.008410  p :     0.015607
      px      :    -0.001021
      py      :     0.008219
      dz2     :     0.000097  d :     0.000206
      dxz     :     0.000012
      dyz     :     0.000139
      dx2y2   :     0.000030
      dxy     :    -0.000071
  1 H s       :     0.001322  s :     0.001322
  2 C s       :     0.038486  s :     0.038486
      pz      :     0.005209  p :     0.097706
      px      :     0.098899
      py      :    -0.006402
      dz2     :     0.000257  d :     0.001635
      dxz     :    -0.000496
      dyz     :     0.000134
      dx2y2   :     0.001923
      dxy     :    -0.000184
  3 F s       :     0.002490  s :     0.002490
      pz      :     0.268388  p :     0.904275
      px      :     0.317492
      py      :     0.318395
      dz2     :     0.000003  d :    -0.001085
      dxz     :    -0.000324
      dyz     :    -0.000390
      dx2y2   :     0.000005
      dxy     :    -0.000380
  4 O s       :     0.001549  s :     0.001549
      pz      :    -0.021499  p :     0.031017
      px      :     0.036737
      py      :     0.015780
      dz2     :     0.000136  d :    -0.000283
      dxz     :    -0.000023
      dyz     :     0.000054
      dx2y2   :    -0.000564
      dxy     :     0.000114
  5 H s       :    -0.000756  s :    -0.000756
  6 F s       :     0.000056  s :     0.000056
      pz      :    -0.000666  p :    -0.001475
      px      :    -0.000345
      py      :    -0.000463
      dz2     :     0.000003  d :     0.000012
      dxz     :     0.000006
      dyz     :    -0.000002
      dx2y2   :    -0.000011
      dxy     :     0.000016
  7 H s       :    -0.091391  s :    -0.091391


                     *******************************
                     * LOEWDIN POPULATION ANALYSIS *
                     *******************************

-------------------------------------------
LOEWDIN ATOMIC CHARGES AND SPIN POPULATIONS
-------------------------------------------
   0 C :   -0.030730    0.014707
   1 H :    0.148163    0.001169
   2 C :    0.100578    0.108007
   3 F :   -0.052243    0.891436
   4 O :   -0.235991    0.033712
   5 H :    0.147863   -0.000387
   6 F :   -0.226407   -0.001294
   7 H :    0.148767   -0.047351

----------------------------------------------------
LOEWDIN REDUCED ORBITAL CHARGES AND SPIN POPULATIONS
----------------------------------------------------
CHARGE
  0 C s       :     2.948911  s :     2.948911
      pz      :     1.005019  p :     2.918739
      px      :     0.851156
      py      :     1.062564
      dz2     :     0.014088  d :     0.163080
      dxz     :     0.047121
      dyz     :     0.038115
      dx2y2   :     0.029928
      dxy     :     0.033827
  1 H s       :     0.851837  s :     0.851837
  2 C s       :     2.961514  s :     2.961514
      pz      :     0.824900  p :     2.730771
      px      :     1.040233
      py      :     0.865638
      dz2     :     0.032814  d :     0.207138
      dxz     :     0.026784
      dyz     :     0.042277
      dx2y2   :     0.068638
      dxy     :     0.036625
  3 F s       :     3.967161  s :     3.967161
      pz      :     1.726636  p :     5.078796
      px      :     1.677724
      py      :     1.674436
      dz2     :     0.000103  d :     0.006286
      dxz     :     0.001753
      dyz     :     0.002264
      dx2y2   :     0.000182
      dxy     :     0.001984
  4 O s       :     3.562699  s :     3.562699
      pz      :     1.497763  p :     4.614144
      px      :     1.665609
      py      :     1.450772
      dz2     :     0.008548  d :     0.059148
      dxz     :     0.011288
      dyz     :     0.010317
      dx2y2   :     0.012748
      dxy     :     0.016247
  5 H s       :     0.852137  s :     0.852137
  6 F s       :     3.759272  s :     3.759272
      pz      :     1.853756  p :     5.435847
      px      :     1.671381
      py      :     1.910710
      dz2     :     0.003926  d :     0.031288
      dxz     :     0.010073
      dyz     :     0.003078
      dx2y2   :     0.007017
      dxy     :     0.007194
  7 H s       :     0.851233  s :     0.851233

SPIN
  0 C s       :     0.001783  s :     0.001783
      pz      :     0.005813  p :     0.012584
      px      :    -0.000737
      py      :     0.007508
      dz2     :     0.000140  d :     0.000340
      dxz     :     0.000160
      dyz     :    -0.000005
      dx2y2   :    -0.000041
      dxy     :     0.000086
  1 H s       :     0.001169  s :     0.001169
  2 C s       :     0.022095  s :     0.022095
      pz      :     0.001631  p :     0.083034
      px      :     0.081042
      py      :     0.000362
      dz2     :    -0.000320  d :     0.002878
      dxz     :    -0.000674
      dyz     :     0.001279
      dx2y2   :     0.002950
      dxy     :    -0.000357
  3 F s       :     0.001428  s :     0.001428
      pz      :     0.264132  p :     0.891279
      px      :     0.313788
      py      :     0.313359
      dz2     :     0.000004  d :    -0.001271
      dxz     :    -0.000337
      dyz     :    -0.000521
      dx2y2   :    -0.000009
      dxy     :    -0.000408
  4 O s       :     0.001490  s :     0.001490
      pz      :    -0.020189  p :     0.030657
      px      :     0.034543
      py      :     0.016303
      dz2     :     0.000374  d :     0.001566
      dxz     :    -0.000083
      dyz     :     0.000349
      dx2y2   :     0.000552
      dxy     :     0.000374
  5 H s       :    -0.000387  s :    -0.000387
  6 F s       :    -0.000060  s :    -0.000060
      pz      :    -0.000666  p :    -0.001304
      px      :    -0.000115
      py      :    -0.000523
      dz2     :     0.000032  d :     0.000070
      dxz     :    -0.000021
      dyz     :    -0.000014
      dx2y2   :     0.000028
      dxy     :     0.000044
  7 H s       :    -0.047351  s :    -0.047351


                      *****************************
                      * MAYER POPULATION ANALYSIS *
                      *****************************

  NA   - Mulliken gross atomic population
  ZA   - Total nuclear charge
  QA   - Mulliken gross atomic charge
  VA   - Mayer's total valence
  BVA  - Mayer's bonded valence
  FA   - Mayer's free valence

  ATOM       NA         ZA         QA         VA         BVA        FA
  0 C      5.9295     6.0000     0.0705     3.5223     3.5219     0.0004
  1 H      0.7946     1.0000     0.2054     0.9173     0.9173     0.0000
  2 C      5.7326     6.0000     0.2674     3.7031     3.6793     0.0237
  3 F      9.0659     9.0000    -0.0659     1.0284     0.1945     0.8339
  4 O      8.4773     8.0000    -0.4773     1.9503     1.9455     0.0049
  5 H      0.7907     1.0000     0.2093     0.9185     0.9185     0.0000
  6 F      9.4441     9.0000    -0.4441     0.8037     0.8037     0.0000
  7 H      0.7653     1.0000     0.2347     0.8955     0.8866     0.0089

  Mayer bond orders larger than 0.100000
B(  0-C ,  1-H ) :   0.9270 B(  0-C ,  2-C ) :   0.9012 B(  0-C ,  5-H ) :   0.9282 
B(  0-C ,  6-F ) :   0.7634 B(  2-C ,  4-O ) :   1.8897 B(  2-C ,  7-H ) :   0.8010 


-------
TIMINGS
-------

Total SCF time: 0 days 0 hours 0 min 29 sec 

Total time                  ....      29.836 sec
Sum of individual times     ....      20.305 sec  ( 68.1%)

Fock matrix formation       ....      19.554 sec  ( 65.5%)
Diagonalization             ....       0.090 sec  (  0.3%)
Density matrix formation    ....       0.004 sec  (  0.0%)
Population analysis         ....       0.168 sec  (  0.6%)
Initial guess               ....       0.293 sec  (  1.0%)
Orbital Transformation      ....       0.017 sec  (  0.1%)
Orbital Orthonormalization  ....       0.000 sec  (  0.0%)
DIIS solution               ....       0.077 sec  (  0.3%)

Maximum memory used throughout the entire SCF-calculation: 230.4 MB

------------------------------------------------------------------------------
                                ORCA  MP2 
------------------------------------------------------------------------------

MP2 will be done in the AO integral direct mode
The Q1-step will be done using symmetric double matrices
Dimension of the basis                    ...   76
Memory devoted for MP2                    ...  256 MB   
Memory needed for all in one shot         ...   37 MB
Number of MOs that can be treated together...  149      
MP2 density construction                  ... relaxed
The MP2 gradient is requested => amplitudes will be stored on disk
Total number of MOs              ...   21
Number of MOs treated per batch  ...   21 
Number of batches necessary      ...    1 
OPERATORS   0/  0 PASS   0
OPERATORS   0/  1 PASS   0
Total number of MOs              ...   21
Number of MOs treated per batch  ...   20 
Number of batches necessary      ...    1 
OPERATORS   1/  0 PASS   0
OPERATORS   1/  1 PASS   0

Correlation energy components
 E2 and T2 for alpha/alpha pairs :     -0.102194985 Eh
 E2 and T2 for beta/beta   pairs :     -0.095625365 Eh
 E2 and T2 for alpha/beta  pairs :     -0.542221964 Eh

-----------------------------------------------
 MP2 CORRELATION ENERGY   :     -0.740042314 Eh
-----------------------------------------------


---------------------
MP2 DENSITY FORMATION
---------------------

Completing the external part of the density      ... done
Storing the unrelaxed density                    ... done

Calculating G(D)                                 ... done
Completing the Lagrangian                        ... done
Solving the Z-vector equations                   ... 

------------------------------------------------------------------------------
                           ORCA CP-SCF CALCULATION
------------------------------------------------------------------------------

Input orbitals are from        ... input.gbw
Input Perturbation             ... input.pin.tmp
Wavefunction output            ... input.pout.tmp
Perturbation mode              ... Real perturbation (singlet)
Solver                         ... POPLE
Max. number of iterations      ... 128
Convergence tolerance          ... 3.000e-05
Integral handling              ... Direct
Number of perturbations        ... 1
Number of operators            ... 2
Orbital ranges used for CP-SCF:
 Operator 0:  Orbitals   0... 20  to  21... 75
 Operator 1:  Orbitals   0... 19  to  20... 75
Variables per perturbation     ... 2275
Memory available               ... 1015.6 MB
Memory needed per perturbation ...   4.7 MB
Perturbations treated per batch... 1
Number of batches              ... 1
     CP-SCF ITERATION   0:   1.0629e-01 (   0.3 sec)
     CP-SCF ITERATION   1:   4.3845e-02 (   0.3 sec)
     CP-SCF ITERATION   2:   2.0999e-02 (   0.3 sec)
     CP-SCF ITERATION   3:   1.0280e-02 (   0.3 sec)
     CP-SCF ITERATION   4:   6.7356e-03 (   0.3 sec)
     CP-SCF ITERATION   5:   5.1526e-03 (   0.3 sec)
     CP-SCF ITERATION   6:   5.0422e-03 (   0.3 sec)
     CP-SCF ITERATION   7:   4.7627e-03 (   0.3 sec)
     CP-SCF ITERATION   8:   3.7095e-03 (   0.3 sec)
     CP-SCF ITERATION   9:   2.6725e-03 (   0.3 sec)
     CP-SCF ITERATION  10:   1.4013e-03 (   0.3 sec)
     CP-SCF ITERATION  11:   5.6021e-04 (   0.3 sec)
     CP-SCF ITERATION  12:   2.7448e-04 (   0.3 sec)
     CP-SCF ITERATION  13:   2.0613e-04 (   0.3 sec)
     CP-SCF ITERATION  14:   2.2965e-04 (   0.3 sec)
     CP-SCF ITERATION  15:   2.5500e-04 (   0.3 sec)
     CP-SCF ITERATION  16:   1.4682e-04 (   0.3 sec)
     CP-SCF ITERATION  17:   5.5561e-05 (   0.3 sec)
     CP-SCF ITERATION  18:   1.9716e-05 (   0.3 sec)
                    *** THE CP-SCF HAS CONVERGED ***
                                                 ... done
Finalizing the relaxed density                   ... done
Transforming P to the AO basis                   ... done
Storing the relaxed density                      ... done

------------------------------------
ENERGY WEIGHTED DENSITY FINALIZATION
------------------------------------

Gathering the parts of the W-matrix              ...                                                                                                           done
Forming the Z-density                            ... done
Transforming Z to the AO basis                   ... done
Calculating G(Z)                                 ... done
Finalizing the W-matrix                          ...                                                                                                           done
Transforming W to the AO basis and storing       ... done

                *********************************************
                * UNRELAXED MP2 DENSITY POPULATION ANALYSIS *
                *********************************************

------------------------------------------------------------------------------
                           ORCA POPULATION ANALYSIS
------------------------------------------------------------------------------
Input electron density              ... input.pmp2ur
Input spin density                  ... input.rmp2ur
BaseName (.gbw .S,...)              ... input

                    ********************************
                    * MULLIKEN POPULATION ANALYSIS *
                    ********************************

------------------------------------------
MULLIKEN ATOMIC CHARGES AND SPIN DENSITIES
------------------------------------------
   0 C :    0.057108    0.016576
   1 H :    0.206976    0.001344
   2 C :    0.243540    0.136851
   3 F :   -0.068508    0.902012
   4 O :   -0.453242    0.033843
   5 H :    0.210858   -0.000706
   6 F :   -0.433204   -0.001381
   7 H :    0.236472   -0.088540
Sum of atomic charges       :   -0.0000000
Sum of atomic spin densities:    1.0000000

---------------------------------------------------
MULLIKEN REDUCED ORBITAL CHARGES AND SPIN DENSITIES
---------------------------------------------------
CHARGE
  0 C s       :     3.198498  s :     3.198498
      pz      :     0.930793  p :     2.652560
      px      :     0.720104
      py      :     1.001662
      dz2     :     0.009592  d :     0.091835
      dxz     :     0.024797
      dyz     :     0.022324
      dx2y2   :     0.015896
      dxy     :     0.019226
  1 H s       :     0.793024  s :     0.793024
  2 C s       :     3.191309  s :     3.191309
      pz      :     0.751666  p :     2.453049
      px      :     0.952250
      py      :     0.749134
      dz2     :     0.018548  d :     0.112101
      dxz     :     0.016817
      dyz     :     0.021013
      dx2y2   :     0.036389
      dxy     :     0.019335
  3 F s       :     3.996471  s :     3.996471
      pz      :     1.717497  p :     5.053693
      px      :     1.672065
      py      :     1.664131
      dz2     :     0.003133  d :     0.018345
      dxz     :     0.003920
      dyz     :     0.004124
      dx2y2   :     0.003138
      dxy     :     0.004029
  4 O s       :     3.875027  s :     3.875027
      pz      :     1.489742  p :     4.524313
      px      :     1.619537
      py      :     1.415034
      dz2     :     0.010168  d :     0.053903
      dxz     :     0.011127
      dyz     :     0.008863
      dx2y2   :     0.012074
      dxy     :     0.011671
  5 H s       :     0.789142  s :     0.789142
  6 F s       :     3.978025  s :     3.978025
      pz      :     1.853506  p :     5.419015
      px      :     1.653634
      py      :     1.911874
      dz2     :     0.005624  d :     0.036164
      dxz     :     0.009796
      dyz     :     0.005451
      dx2y2   :     0.007873
      dxy     :     0.007420
  7 H s       :     0.763528  s :     0.763528

SPIN
  0 C s       :     0.000670  s :     0.000670
      pz      :     0.008360  p :     0.015616
      px      :    -0.000932
      py      :     0.008188
      dz2     :     0.000115  d :     0.000290
      dxz     :     0.000027
      dyz     :     0.000160
      dx2y2   :     0.000044
      dxy     :    -0.000056
  1 H s       :     0.001344  s :     0.001344
  2 C s       :     0.038305  s :     0.038305
      pz      :     0.005298  p :     0.096412
      px      :     0.097086
      py      :    -0.005972
      dz2     :     0.000279  d :     0.002134
      dxz     :    -0.000348
      dyz     :     0.000141
      dx2y2   :     0.002114
      dxy     :    -0.000053
  3 F s       :     0.004797  s :     0.004797
      pz      :     0.265703  p :     0.895258
      px      :     0.314349
      py      :     0.315206
      dz2     :     0.000551  d :     0.001957
      dxz     :     0.000273
      dyz     :     0.000217
      dx2y2   :     0.000636
      dxy     :     0.000280
  4 O s       :     0.001668  s :     0.001668
      pz      :    -0.021208  p :     0.032327
      px      :     0.037547
      py      :     0.015988
      dz2     :     0.000096  d :    -0.000151
      dxz     :    -0.000006
      dyz     :     0.000031
      dx2y2   :    -0.000449
      dxy     :     0.000177
  5 H s       :    -0.000706  s :    -0.000706
  6 F s       :     0.000055  s :     0.000055
      pz      :    -0.000655  p :    -0.001443
      px      :    -0.000324
      py      :    -0.000464
      dz2     :     0.000003  d :     0.000006
      dxz     :     0.000003
      dyz     :    -0.000002
      dx2y2   :    -0.000012
      dxy     :     0.000015
  7 H s       :    -0.088540  s :    -0.088540


                     *******************************
                     * LOEWDIN POPULATION ANALYSIS *
                     *******************************

-----------------------------------------
LOEWDIN ATOMIC CHARGES AND SPIN DENSITIES
-----------------------------------------
   0 C :   -0.044899    0.014993
   1 H :    0.150485    0.001181
   2 C :    0.080287    0.107580
   3 F :   -0.054806    0.887493
   4 O :   -0.215903    0.035201
   5 H :    0.150209   -0.000343
   6 F :   -0.216872   -0.001259
   7 H :    0.151498   -0.044845

--------------------------------------------------
LOEWDIN REDUCED ORBITAL CHARGES AND SPIN DENSITIES
--------------------------------------------------
CHARGE
  0 C s       :     2.949745  s :     2.949745
      pz      :     1.003538  p :     2.917006
      px      :     0.853691
      py      :     1.059776
      dz2     :     0.017395  d :     0.178148
      dxz     :     0.049790
      dyz     :     0.041257
      dx2y2   :     0.032874
      dxy     :     0.036833
  1 H s       :     0.849515  s :     0.849515
  2 C s       :     2.961142  s :     2.961142
      pz      :     0.830414  p :     2.738230
      px      :     1.038517
      py      :     0.869298
      dz2     :     0.035195  d :     0.220341
      dxz     :     0.029550
      dyz     :     0.045129
      dx2y2   :     0.070663
      dxy     :     0.039805
  3 F s       :     3.963771  s :     3.963771
      pz      :     1.723326  p :     5.069769
      px      :     1.674864
      py      :     1.671579
      dz2     :     0.003171  d :     0.021266
      dxz     :     0.004694
      dyz     :     0.005238
      dx2y2   :     0.003267
      dxy     :     0.004897
  4 O s       :     3.559343  s :     3.559343
      pz      :     1.483858  p :     4.574368
      px      :     1.652532
      py      :     1.437978
      dz2     :     0.012953  d :     0.082191
      dxz     :     0.015927
      dyz     :     0.014831
      dx2y2   :     0.017269
      dxy     :     0.021211
  5 H s       :     0.849791  s :     0.849791
  6 F s       :     3.757898  s :     3.757898
      pz      :     1.844657  p :     5.407745
      px      :     1.661097
      py      :     1.901991
      dz2     :     0.007805  d :     0.051228
      dxz     :     0.014258
      dyz     :     0.006909
      dx2y2   :     0.011057
      dxy     :     0.011200
  7 H s       :     0.848502  s :     0.848502

SPIN
  0 C s       :     0.001880  s :     0.001880
      pz      :     0.005817  p :     0.012677
      px      :    -0.000647
      py      :     0.007507
      dz2     :     0.000157  d :     0.000437
      dxz     :     0.000175
      dyz     :     0.000026
      dx2y2   :    -0.000023
      dxy     :     0.000101
  1 H s       :     0.001181  s :     0.001181
  2 C s       :     0.021931  s :     0.021931
      pz      :     0.001856  p :     0.082163
      px      :     0.079575
      py      :     0.000732
      dz2     :    -0.000274  d :     0.003486
      dxz     :    -0.000502
      dyz     :     0.001280
      dx2y2   :     0.003192
      dxy     :    -0.000209
  3 F s       :     0.003771  s :     0.003771
      pz      :     0.261346  p :     0.881961
      px      :     0.310563
      py      :     0.310052
      dz2     :     0.000548  d :     0.001760
      dxz     :     0.000260
      dyz     :     0.000084
      dx2y2   :     0.000615
      dxy     :     0.000253
  4 O s       :     0.001574  s :     0.001574
      pz      :    -0.019892  p :     0.031982
      px      :     0.035436
      py      :     0.016438
      dz2     :     0.000335  d :     0.001644
      dxz     :    -0.000064
      dyz     :     0.000328
      dx2y2   :     0.000614
      dxy     :     0.000431
  5 H s       :    -0.000343  s :    -0.000343
  6 F s       :    -0.000060  s :    -0.000060
      pz      :    -0.000652  p :    -0.001269
      px      :    -0.000098
      py      :    -0.000519
      dz2     :     0.000031  d :     0.000070
      dxz     :    -0.000020
      dyz     :    -0.000013
      dx2y2   :     0.000027
      dxy     :     0.000045
  7 H s       :    -0.044845  s :    -0.044845


                      *****************************
                      * MAYER POPULATION ANALYSIS *
                      *****************************

  NA   - Mulliken gross atomic population
  ZA   - Total nuclear charge
  QA   - Mulliken gross atomic charge
  VA   - Mayer's total valence
  BVA  - Mayer's bonded valence
  FA   - Mayer's free valence

  ATOM       NA         ZA         QA         VA         BVA        FA
  0 C      5.9429     6.0000     0.0571     3.6050     3.3659     0.2391
  1 H      0.7930     1.0000     0.2070     0.9195     0.8829     0.0366
  2 C      5.7565     6.0000     0.2435     3.7756     3.4494     0.3262
  3 F      9.0685     9.0000    -0.0685     1.2263     0.1854     1.0409
  4 O      8.4532     8.0000    -0.4532     2.2064     1.7947     0.4117
  5 H      0.7891     1.0000     0.2109     0.9207     0.8848     0.0359
  6 F      9.4332     9.0000    -0.4332     1.0747     0.7585     0.3162
  7 H      0.7635     1.0000     0.2365     0.8975     0.8496     0.0479

  Mayer bond orders larger than 0.100000
B(  0-C ,  1-H ) :   0.8948 B(  0-C ,  2-C ) :   0.8547 B(  0-C ,  5-H ) :   0.8963 
B(  0-C ,  6-F ) :   0.7219 B(  2-C ,  4-O ) :   1.7473 B(  2-C ,  7-H ) :   0.7680 



                *******************************************
                * RELAXED MP2 DENSITY POPULATION ANALYSIS *
                *******************************************

------------------------------------------------------------------------------
                           ORCA POPULATION ANALYSIS
------------------------------------------------------------------------------
Input electron density              ... input.pmp2re
Input spin density                  ... input.rmp2re
BaseName (.gbw .S,...)              ... input

                    ********************************
                    * MULLIKEN POPULATION ANALYSIS *
                    ********************************

------------------------------------------
MULLIKEN ATOMIC CHARGES AND SPIN DENSITIES
------------------------------------------
   0 C :    0.017595    0.036673
   1 H :    0.202277   -0.000039
   2 C :    0.177243    0.116721
   3 F :   -0.148748    0.799699
   4 O :   -0.318736    0.116637
   5 H :    0.199155   -0.000788
   6 F :   -0.360492   -0.001733
   7 H :    0.231705   -0.067171
Sum of atomic charges       :   -0.0000000
Sum of atomic spin densities:    1.0000000

---------------------------------------------------
MULLIKEN REDUCED ORBITAL CHARGES AND SPIN DENSITIES
---------------------------------------------------
CHARGE
  0 C s       :     3.193276  s :     3.193276
      pz      :     0.940437  p :     2.702954
      px      :     0.753200
      py      :     1.009317
      dz2     :     0.010082  d :     0.086176
      dxz     :     0.022799
      dyz     :     0.019886
      dx2y2   :     0.015008
      dxy     :     0.018401
  1 H s       :     0.797723  s :     0.797723
  2 C s       :     3.207956  s :     3.207956
      pz      :     0.790837  p :     2.512673
      px      :     0.934399
      py      :     0.787438
      dz2     :     0.017167  d :     0.102127
      dxz     :     0.014766
      dyz     :     0.019353
      dx2y2   :     0.032889
      dxy     :     0.017952
  3 F s       :     3.993503  s :     3.993503
      pz      :     1.717370  p :     5.137051
      px      :     1.743373
      py      :     1.676308
      dz2     :     0.003150  d :     0.018194
      dxz     :     0.003830
      dyz     :     0.004144
      dx2y2   :     0.003177
      dxy     :     0.003894
  4 O s       :     3.862511  s :     3.862511
      pz      :     1.457957  p :     4.404988
      px      :     1.565511
      py      :     1.381520
      dz2     :     0.009603  d :     0.051236
      dxz     :     0.009987
      dyz     :     0.008858
      dx2y2   :     0.012085
      dxy     :     0.010702
  5 H s       :     0.800845  s :     0.800845
  6 F s       :     3.970684  s :     3.970684
      pz      :     1.835733  p :     5.354230
      px      :     1.621176
      py      :     1.897322
      dz2     :     0.005781  d :     0.035578
      dxz     :     0.009275
      dyz     :     0.005433
      dx2y2   :     0.007710
      dxy     :     0.007378
  7 H s       :     0.768295  s :     0.768295

SPIN
  0 C s       :     0.003015  s :     0.003015
      pz      :     0.015506  p :     0.033430
      px      :     0.000915
      py      :     0.017009
      dz2     :     0.000049  d :     0.000228
      dxz     :     0.000014
      dyz     :     0.000228
      dx2y2   :     0.000068
      dxy     :    -0.000131
  1 H s       :    -0.000039  s :    -0.000039
  2 C s       :     0.032821  s :     0.032821
      pz      :    -0.012242  p :     0.079378
      px      :     0.113059
      py      :    -0.021439
      dz2     :     0.000478  d :     0.004523
      dxz     :    -0.000125
      dyz     :     0.000555
      dx2y2   :     0.003820
      dxy     :    -0.000206
  3 F s       :     0.004581  s :     0.004581
      pz      :     0.259944  p :     0.793113
      px      :     0.238115
      py      :     0.295054
      dz2     :     0.000555  d :     0.002005
      dxz     :     0.000301
      dyz     :     0.000186
      dx2y2   :     0.000636
      dxy     :     0.000326
  4 O s       :     0.004776  s :     0.004776
      pz      :    -0.005953  p :     0.112736
      px      :     0.075220
      py      :     0.043469
      dz2     :    -0.000110  d :    -0.000875
      dxz     :    -0.000076
      dyz     :    -0.000080
      dx2y2   :    -0.000656
      dxy     :     0.000047
  5 H s       :    -0.000788  s :    -0.000788
  6 F s       :     0.000103  s :     0.000103
      pz      :    -0.000768  p :    -0.001841
      px      :    -0.000517
      py      :    -0.000556
      dz2     :     0.000006  d :     0.000005
      dxz     :    -0.000000
      dyz     :    -0.000005
      dx2y2   :    -0.000013
      dxy     :     0.000017
  7 H s       :    -0.067171  s :    -0.067171


                     *******************************
                     * LOEWDIN POPULATION ANALYSIS *
                     *******************************

-----------------------------------------
LOEWDIN ATOMIC CHARGES AND SPIN DENSITIES
-----------------------------------------
   0 C :   -0.075918    0.029714
   1 H :    0.155011    0.000178
   2 C :    0.050010    0.100387
   3 F :   -0.138998    0.787463
   4 O :   -0.127069    0.109122
   5 H :    0.151037   -0.000401
   6 F :   -0.179191   -0.001442
   7 H :    0.165119   -0.025020

--------------------------------------------------
LOEWDIN REDUCED ORBITAL CHARGES AND SPIN DENSITIES
--------------------------------------------------
CHARGE
  0 C s       :     2.955223  s :     2.955223
      pz      :     1.011024  p :     2.948965
      px      :     0.872139
      py      :     1.065802
      dz2     :     0.017923  d :     0.171731
      dxz     :     0.046927
      dyz     :     0.039496
      dx2y2   :     0.031533
      dxy     :     0.035852
  1 H s       :     0.844989  s :     0.844989
  2 C s       :     2.970862  s :     2.970862
      pz      :     0.855030  p :     2.769348
      px      :     1.022550
      py      :     0.891768
      dz2     :     0.033372  d :     0.209779
      dxz     :     0.027620
      dyz     :     0.043766
      dx2y2   :     0.065649
      dxy     :     0.039372
  3 F s       :     3.961595  s :     3.961595
      pz      :     1.724933  p :     5.156558
      px      :     1.745587
      py      :     1.686039
      dz2     :     0.003197  d :     0.020845
      dxz     :     0.004485
      dyz     :     0.005188
      dx2y2   :     0.003338
      dxy     :     0.004637
  4 O s       :     3.563386  s :     3.563386
      pz      :     1.460694  p :     4.482431
      px      :     1.611106
      py      :     1.410631
      dz2     :     0.012766  d :     0.081251
      dxz     :     0.015316
      dyz     :     0.014904
      dx2y2   :     0.017713
      dxy     :     0.020552
  5 H s       :     0.848963  s :     0.848963
  6 F s       :     3.759730  s :     3.759730
      pz      :     1.833186  p :     5.367228
      px      :     1.641203
      py      :     1.892839
      dz2     :     0.007996  d :     0.052233
      dxz     :     0.014462
      dyz     :     0.006997
      dx2y2   :     0.011284
      dxy     :     0.011493
  7 H s       :     0.834881  s :     0.834881

SPIN
  0 C s       :     0.003921  s :     0.003921
      pz      :     0.011104  p :     0.025761
      px      :     0.000460
      py      :     0.014197
      dz2     :     0.000019  d :     0.000032
      dxz     :     0.000156
      dyz     :    -0.000079
      dx2y2   :    -0.000033
      dxy     :    -0.000031
  1 H s       :     0.000178  s :     0.000178
  2 C s       :     0.019277  s :     0.019277
      pz      :    -0.012651  p :     0.071856
      px      :     0.096374
      py      :    -0.011867
      dz2     :     0.000127  d :     0.009254
      dxz     :     0.000035
      dyz     :     0.002747
      dx2y2   :     0.006719
      dxy     :    -0.000374
  3 F s       :     0.004036  s :     0.004036
      pz      :     0.255759  p :     0.781348
      px      :     0.235403
      py      :     0.290186
      dz2     :     0.000550  d :     0.002079
      dxz     :     0.000375
      dyz     :     0.000149
      dx2y2   :     0.000602
      dxy     :     0.000402
  4 O s       :     0.003315  s :     0.003315
      pz      :    -0.006421  p :     0.104919
      px      :     0.069675
      py      :     0.041665
      dz2     :     0.000100  d :     0.000888
      dxz     :    -0.000282
      dyz     :     0.000327
      dx2y2   :     0.000502
      dxy     :     0.000240
  5 H s       :    -0.000401  s :    -0.000401
  6 F s       :    -0.000064  s :    -0.000064
      pz      :    -0.000766  p :    -0.001547
      px      :    -0.000169
      py      :    -0.000611
      dz2     :     0.000055  d :     0.000168
      dxz     :    -0.000018
      dyz     :    -0.000007
      dx2y2   :     0.000061
      dxy     :     0.000078
  7 H s       :    -0.025020  s :    -0.025020


                      *****************************
                      * MAYER POPULATION ANALYSIS *
                      *****************************

  NA   - Mulliken gross atomic population
  ZA   - Total nuclear charge
  QA   - Mulliken gross atomic charge
  VA   - Mayer's total valence
  BVA  - Mayer's bonded valence
  FA   - Mayer's free valence

  ATOM       NA         ZA         QA         VA         BVA        FA
  0 C      5.9824     6.0000     0.0176     3.6985     3.4689     0.2297
  1 H      0.7977     1.0000     0.2023     0.9191     0.8831     0.0360
  2 C      5.8228     6.0000     0.1772     3.8682     3.5625     0.3057
  3 F      9.1487     9.0000    -0.1487     1.2209     0.4236     0.7974
  4 O      8.3187     8.0000    -0.3187     2.3725     1.9971     0.3754
  5 H      0.8008     1.0000     0.1992     0.9224     0.8874     0.0350
  6 F      9.3605     9.0000    -0.3605     1.1827     0.8722     0.3105
  7 H      0.7683     1.0000     0.2317     0.9016     0.8772     0.0244

  Mayer bond orders larger than 0.100000
B(  0-C ,  1-H ) :   0.8841 B(  0-C ,  2-C ) :   0.8570 B(  0-C ,  5-H ) :   0.8875 
B(  0-C ,  6-F ) :   0.8134 B(  2-C ,  3-F ) :   0.1299 B(  2-C ,  4-O ) :   1.8695 
B(  2-C ,  7-H ) :   0.6835 B(  3-F ,  7-H ) :   0.1814 


----------------------------------
MP2 DERIVATIVE INTEGRAL GENERATION
----------------------------------


Input Wavefunction Amplitudes       ... input.mp2tbb.tmp
Input Correlated Electron Density   ... input.pmp2re
Input Energy Weighted Density       ... input.wmp2.tmp
Input SCF Electron Density          ... input.scfp

One-Electron Terms    ...
                        ... One-Electron Terms done
Prescreening matrices              ... done

Batch handling in the gradient evaluation:
Memory available                      ...  256.0 MB
Memory per occupied orbital in Q2     ...    1.8 MB
Memory per occupied orbital in Q3     ...    0.0 MB
Total memory requirement per |i>      ...    1.8 MB
Max. Number of orbitals possible      ...    140
Number of orbitals treated per batch  ...     41
Number of batches to be done          ...      1
Batch   0: i=    0 ...    40

---------------------------------------
MP2 TOTAL ENERGY:     -351.833482163 Eh
---------------------------------------

The final MP2 gradient
  0:  -0.00005166  -0.00001692   0.00000781
  1:  -0.00003240  -0.00000426  -0.00003129
  2:  -0.00003356   0.00012574   0.00002189
  3:   0.00002029  -0.00007032   0.00000666
  4:   0.00003148  -0.00001410   0.00001629
  5:   0.00002987  -0.00002853  -0.00001619
  6:   0.00001837   0.00001825   0.00001000
  7:   0.00001761  -0.00000986  -0.00001517

-----------------------------------
NORM OF THE MP2 GRADIENT:  0.000181
-----------------------------------

Maximum memory used throughout the entire MP2-calculation: 152.5 MB

-------------------------   --------------------
FINAL SINGLE POINT ENERGY      -351.833482162892
-------------------------   --------------------

------------------------------------------------------------------------------
                         ORCA GEOMETRY RELAXATION STEP
------------------------------------------------------------------------------

Reading the OPT-File                    .... done
Getting information on internals        .... done
Copying old internal coords+grads       .... done
Making the new internal coordinates     .... (new redundants).... done
Validating the new internal coordinates .... (new redundants).... done
Calculating the B-matrix                .... done
Calculating the G,G- and P matrices     .... done
Transforming gradient to internals      .... done
Projecting the internal gradient        .... done
Number of atoms                         ....   8
Number of internal coordinates          ....  25
Current Energy                          ....  -351.833482163 Eh
Current gradient norm                   ....     0.000180864 Eh/bohr
Maximum allowed component of the step   ....  0.300
Current trust radius                    ....  0.300
Evaluating the initial hessian          ....  (Almloef) done
Projecting the Hessian                  .... done
Diagonalizing the Hessian               .... done
Dimension of the hessian                ....  25
Lowest eigenvalues of the Hessian:
  0.011728054  0.023776293  0.062619149  0.071145998  0.147175307
Hessian has   0 negative eigenvalues
Taking P-RFO step
Searching for lambda that maximizes along the lowest mode
TS mode is mode number   0 with eigenvalue   0.01172805 and components:
   1.   -0.00000000
   2.   -0.00000000
   3.    0.00000000
   4.   -0.00000000
   5.   -0.00000000
   6.    0.00000000
   7.   -0.00000000
   8.   -0.00000000
   9.    0.00000000
  10.   -0.00000000
  11.   -0.00000000
  12.    0.00000000
  13.    0.00000000
  14.    0.00000000
  15.   -0.00000000
  16.    0.00000000
  17.    0.00000000
  18.   -0.40824829
  19.   -0.40824829
  20.   -0.40824829
  21.   -0.40824829
  22.   -0.40824829
  23.   -0.40824829
  24.   -0.00000000
  25.   -0.00000000

Lambda that maximizes along the TS mode:       0.01172863
Searching for lambda that minimizes along all other modes
In cycle   1: lambdaN =  -0.00000078   step =   0.00000078
In cycle   2: lambdaN =  -0.00000078   step =   0.00000000
Lambda that minimizes along all other modes:  -0.00000078
Calculated stepsize too large (   0.7349 >    0.3000). Scaled with    0.4082.
The final length of the internal step   ....       0.3000
Converting the step to cartesian space:
 Initial RMS(Int)=    0.0600000000
Transforming coordinates:
 Iter   0:  RMS(Cart)=    0.0723097948 RMS(Int)=    0.0599380541
 Iter   1:  RMS(Cart)=    0.0024994853 RMS(Int)=    0.0022253331
[...]
AutoCI program output          ... >input.lastautoci

	<< Calculating on displaced geometry   1 (of  48) >>
	<< Calculating on displaced geometry   2 (of  48) >>
	<< Calculating on displaced geometry   3 (of  48) >>
	<< Calculating on displaced geometry   4 (of  48) >>
	<< Calculating on displaced geometry   5 (of  48) >>
	<< Calculating on displaced geometry   6 (of  48) >>
	<< Calculating on displaced geometry   7 (of  48) >>
	<< Calculating on displaced geometry   8 (of  48) >>
	<< Calculating on displaced geometry   9 (of  48) >>
	<< Calculating on displaced geometry  10 (of  48) >>
	<< Calculating on displaced geometry  11 (of  48) >>
	<< Calculating on displaced geometry  12 (of  48) >>
	<< Calculating on displaced geometry  13 (of  48) >>
	<< Calculating on displaced geometry  14 (of  48) >>
	<< Calculating on displaced geometry  15 (of  48) >>
	<< Calculating on displaced geometry  16 (of  48) >>
	<< Calculating on displaced geometry  17 (of  48) >>
	<< Calculating on displaced geometry  18 (of  48) >>
	<< Calculating on displaced geometry  19 (of  48) >>
	<< Calculating on displaced geometry  20 (of  48) >>
	<< Calculating on displaced geometry  21 (of  48) >>
	<< Calculating on displaced geometry  22 (of  48) >>
	<< Calculating on displaced geometry  23 (of  48) >>
	<< Calculating on displaced geometry  24 (of  48) >>
	<< Calculating on displaced geometry  25 (of  48) >>
	<< Calculating on displaced geometry  26 (of  48) >>
	<< Calculating on displaced geometry  27 (of  48) >>
	<< Calculating on displaced geometry  28 (of  48) >>
	<< Calculating on displaced geometry  29 (of  48) >>
	<< Calculating on displaced geometry  30 (of  48) >>
	<< Calculating on displaced geometry  31 (of  48) >>
	<< Calculating on displaced geometry  32 (of  48) >>
	<< Calculating on displaced geometry  33 (of  48) >>
	<< Calculating on displaced geometry  34 (of  48) >>
	<< Calculating on displaced geometry  35 (of  48) >>
	<< Calculating on displaced geometry  36 (of  48) >>
	<< Calculating on displaced geometry  37 (of  48) >>
	<< Calculating on displaced geometry  38 (of  48) >>
	<< Calculating on displaced geometry  39 (of  48) >>
	<< Calculating on displaced geometry  40 (of  48) >>
	<< Calculating on displaced geometry  41 (of  48) >>
	<< Calculating on displaced geometry  42 (of  48) >>
	<< Calculating on displaced geometry  43 (of  48) >>
	<< Calculating on displaced geometry  44 (of  48) >>
	<< Calculating on displaced geometry  45 (of  48) >>
	<< Calculating on displaced geometry  46 (of  48) >>
	<< Calculating on displaced geometry  47 (of  48) >>
	<< Calculating on displaced geometry  48 (of  48) >>

-----------------------
VIBRATIONAL FREQUENCIES
-----------------------

Scaling factor for frequencies =  1.000000000 (already applied!)

   0:         0.00 cm**-1
   1:         0.00 cm**-1
   2:         0.00 cm**-1
   3:         0.00 cm**-1
   4:         0.00 cm**-1
   5:         0.00 cm**-1
   6:     -1120.86 cm**-1 ***imaginary mode***
   7:        57.72 cm**-1
   8:        66.28 cm**-1
   9:       148.09 cm**-1
  10:       330.32 cm**-1
  11:       531.14 cm**-1
  12:       589.98 cm**-1
  13:      1022.29 cm**-1
  14:      1088.94 cm**-1
  15:      1135.37 cm**-1
  16:      1270.39 cm**-1
  17:      1289.25 cm**-1
  18:      1418.43 cm**-1
  19:      1543.27 cm**-1
  20:      1827.28 cm**-1
  21:      2132.46 cm**-1
  22:      3125.56 cm**-1
  23:      3197.74 cm**-1


------------
NORMAL MODES
------------

These modes are the cartesian displacements weighted by the diagonal matrix
M(i,i)=1/sqrt(m[i]) where m[i] is the mass of the displaced atom
Thus, these vectors are normalized but *not* orthogonal

                  0          1          2          3          4          5    
      0       0.000000   0.000000   0.000000   0.000000   0.000000   0.000000
      1       0.000000   0.000000   0.000000   0.000000   0.000000   0.000000
      2       0.000000   0.000000   0.000000   0.000000   0.000000   0.000000
      3       0.000000   0.000000   0.000000   0.000000   0.000000   0.000000
      4       0.000000   0.000000   0.000000   0.000000   0.000000   0.000000
      5       0.000000   0.000000   0.000000   0.000000   0.000000   0.000000
      6       0.000000   0.000000   0.000000   0.000000   0.000000   0.000000
      7       0.000000   0.000000   0.000000   0.000000   0.000000   0.000000
      8       0.000000   0.000000   0.000000   0.000000   0.000000   0.000000
      9       0.000000   0.000000   0.000000   0.000000   0.000000   0.000000
     10       0.000000   0.000000   0.000000   0.000000   0.000000   0.000000
     11       0.000000   0.000000   0.000000   0.000000   0.000000   0.000000
     12       0.000000   0.000000   0.000000   0.000000   0.000000   0.000000
     13       0.000000   0.000000   0.000000   0.000000   0.000000   0.000000
     14       0.000000   0.000000   0.000000   0.000000   0.000000   0.000000
     15       0.000000   0.000000   0.000000   0.000000   0.000000   0.000000
     16       0.000000   0.000000   0.000000   0.000000   0.000000   0.000000
     17       0.000000   0.000000   0.000000   0.000000   0.000000   0.000000
     18       0.000000   0.000000   0.000000   0.000000   0.000000   0.000000
     19       0.000000   0.000000   0.000000   0.000000   0.000000   0.000000
     20       0.000000   0.000000   0.000000   0.000000   0.000000   0.000000
     21       0.000000   0.000000   0.000000   0.000000   0.000000   0.000000
     22       0.000000   0.000000   0.000000   0.000000   0.000000   0.000000
     23       0.000000   0.000000   0.000000   0.000000   0.000000   0.000000
                  6          7          8          9         10         11    
      0       0.025502   0.028808  -0.117357   0.094630   0.226935  -0.059500
      1       0.003412   0.177902  -0.063692  -0.004042  -0.162175  -0.117306
      2      -0.012217   0.174243  -0.218229   0.024911   0.120063   0.147657
      3       0.025640   0.455379  -0.290772   0.112171   0.168345  -0.338003
      4      -0.025770   0.299288  -0.077608  -0.074419  -0.283956  -0.143239
      5       0.034250   0.376164  -0.357852   0.154986   0.270405  -0.076466
      6      -0.022527   0.038522   0.067203   0.192860   0.146307   0.271271
      7       0.023426   0.015246   0.156348  -0.090547  -0.180050   0.170102
      8       0.047479   0.000184  -0.054462  -0.103304   0.126358   0.013728
      9      -0.047732  -0.069648   0.110495  -0.378005   0.025272  -0.034818
     10      -0.051797   0.028009  -0.234221  -0.166392   0.036957  -0.025443
     11      -0.050022   0.072918   0.443077  -0.112888   0.018128  -0.028955
     12       0.038055   0.056059   0.166938   0.179334  -0.229903   0.020855
     13       0.002948  -0.063643   0.136680   0.172282   0.057217   0.254302
     14      -0.011077  -0.084754   0.059560   0.258108  -0.059330  -0.291183
     15       0.017521  -0.327664  -0.028652   0.042579   0.126218   0.077050
     16      -0.040247   0.432401  -0.319063   0.066508  -0.236326  -0.544777
     17       0.021906   0.365584  -0.150757   0.031251   0.261706   0.269556
     18      -0.003364  -0.029117  -0.205943   0.022261  -0.088078  -0.116942
     19      -0.000625  -0.134835   0.064380   0.104335   0.176635  -0.177202
     20      -0.000745  -0.150425  -0.290145  -0.035807  -0.179330   0.169340
     21       0.280395   0.041681   0.066335   0.277991   0.090751   0.266792
     22       0.687422  -0.009666   0.324263  -0.429876  -0.335634  -0.158078
     23       0.656317  -0.014160  -0.069779  -0.546328   0.511516  -0.140311
                 12         13         14         15         16         17    
      0       0.031980  -0.051346   0.172336  -0.382559   0.002294   0.019560
      1       0.061911   0.228622  -0.043871  -0.118810  -0.029333  -0.002075
      2       0.036063   0.037464   0.222418   0.199168  -0.032241  -0.008930
      3      -0.289705  -0.512985  -0.255010  -0.392899   0.397269   0.109238
      4       0.205698   0.261265  -0.136644  -0.179536   0.396060   0.094849
      5      -0.516679  -0.465045  -0.041704   0.272222  -0.395136  -0.089391
      6      -0.024885   0.095129  -0.206637   0.036031  -0.007103   0.044380
      7       0.189105  -0.197998   0.057102  -0.035935  -0.019526  -0.047842
      8       0.275218  -0.068003  -0.206007  -0.003865  -0.038531   0.074887
      9      -0.057202   0.013132   0.008653  -0.000838   0.001075   0.003298
     10      -0.055620   0.015840   0.007321  -0.001252   0.001411   0.004232
     11      -0.058177   0.014318   0.009061  -0.002082   0.001270   0.004970
     12       0.025278  -0.038159   0.026774  -0.022418  -0.001601  -0.064522
     13      -0.126136   0.005678   0.001684   0.024095  -0.001322  -0.016225
     14      -0.025913   0.032229   0.022317  -0.015939   0.007811  -0.004809
     15       0.301848   0.367103   0.442445  -0.371881  -0.374259   0.057897
     16      -0.427123  -0.324399  -0.483111  -0.283496  -0.358855   0.062472
     17       0.065025  -0.044002   0.233002   0.296144   0.503909  -0.081868
     18       0.034819  -0.009561  -0.012099   0.276193   0.002540  -0.015652
     19       0.034791  -0.036404  -0.004002   0.085523   0.027936   0.001696
     20      -0.083974  -0.009191  -0.031534  -0.132555   0.029818   0.003769
     21      -0.076038   0.162524  -0.138734   0.060040  -0.008423   0.327914
     22      -0.374994  -0.004314   0.372792   0.336217   0.012852   0.583287
     23      -0.167028   0.264784  -0.317517  -0.105016   0.024614  -0.703046
                 18         19         20         21         22         23    
      0      -0.032328   0.083492  -0.006406   0.013187   0.058660   0.020376
      1      -0.115340  -0.012649  -0.022374   0.017578  -0.031699   0.064725
      2       0.126090  -0.000624   0.024648  -0.009313   0.004352   0.067973
      3       0.163003  -0.593150   0.046926  -0.005163  -0.331083   0.260140
      4       0.401937  -0.176439   0.016571  -0.003352   0.617568  -0.467813
      5      -0.557714  -0.323121   0.025205   0.023223   0.372983  -0.265828
      6       0.003101   0.006665   0.453919   0.062862  -0.000706   0.000738
      7      -0.007979  -0.001720   0.429241  -0.048218   0.000350   0.001025
      8      -0.017239   0.001520  -0.319650   0.044996  -0.000655   0.000354
      9      -0.002180  -0.000361  -0.015918  -0.012251  -0.000065   0.000014
     10      -0.002806  -0.000269  -0.019473  -0.014002  -0.000027   0.000004
     11      -0.002948  -0.000228  -0.018391  -0.013657  -0.000034   0.000023
     12       0.019117  -0.005153  -0.300958   0.020941   0.000110  -0.000238
     13       0.022033  -0.004339  -0.293834   0.023013   0.000013  -0.000168
     14      -0.011483   0.002535   0.213443  -0.012631  -0.000039   0.000003
     15       0.164049  -0.501918   0.073860   0.015161  -0.369382  -0.498831
     16       0.489383   0.422519   0.035473  -0.038971  -0.251092  -0.308057
     17      -0.416919   0.268410  -0.068280   0.027845  -0.407322  -0.538332
     18      -0.008387   0.005209  -0.007431  -0.004618   0.000352  -0.000140
     19       0.014843  -0.002575  -0.011450  -0.001965   0.000338  -0.000411
     20      -0.012292   0.001600   0.011316   0.001702  -0.000404  -0.000515
     21      -0.083062   0.011208  -0.236332  -0.930631   0.002760  -0.006760
     22       0.001538   0.047609   0.346405   0.343103   0.001006   0.002730
     23       0.147099  -0.022059   0.303793  -0.050450  -0.000818  -0.000783


-----------
IR SPECTRUM
-----------

 Mode   freq       eps      Int      T**2         TX        TY        TZ
       cm**-1   L/(mol*cm) km/mol    a.u.
----------------------------------------------------------------------------
  7:     57.72   0.002192   11.08  0.011848  ( 0.017587  0.070185  0.081319)
  8:     66.28   0.000219    1.11  0.001033  (-0.012580  0.002412 -0.029483)
  9:    148.09   0.001090    5.51  0.002297  ( 0.039772 -0.022291 -0.014764)
 10:    330.32   0.004192   21.18  0.003960  ( 0.032075 -0.045822  0.028834)
 11:    531.14   0.002894   14.62  0.001700  ( 0.037425 -0.000701  0.017293)
 12:    589.98   0.019727   99.69  0.010434  ( 0.074605  0.034678  0.060546)
 13:   1022.29   0.009046   45.72  0.002761  (-0.041881 -0.022598 -0.022287)
 14:   1088.94   0.005046   25.50  0.001446  (-0.030482  0.008033 -0.021271)
 15:   1135.37   0.014786   74.72  0.004064  (-0.047818 -0.023176  0.035218)
 16:   1270.39   0.000523    2.64  0.000128  (-0.005496 -0.005139 -0.008474)
 17:   1289.25   0.003287   16.61  0.000796  (-0.016264 -0.015718 -0.016856)
 18:   1418.43   0.002894   14.63  0.000637  (-0.004063 -0.003706  0.024628)
 19:   1543.27   0.001154    5.83  0.000233  (-0.001963  0.012337 -0.008787)
 20:   1827.28   0.058858  297.44  0.010052  ( 0.081038  0.057781  0.012077)
 21:   2132.46   0.306191  1547.36  0.044808  ( 0.168834  0.064902  0.109957)
 22:   3125.56   0.001924    9.72  0.000192  ( 0.013306  0.000944 -0.003766)
 23:   3197.74   0.001473    7.44  0.000144  ( 0.002937  0.007457  0.008915)

* The epsilon (eps) is given for a Dirac delta lineshape.
** The dipole moment derivative (T) already includes vibrational overlap.

The first frequency considered to be a vibration is 7
The total number of vibrations considered is 17


--------------------------
THERMOCHEMISTRY AT 298.15K
--------------------------

Temperature         ... 298.15 K
Pressure            ... 1.00 atm
Total Mass          ... 81.04 AMU

Throughout the following assumptions are being made:
  (1) The electronic state is orbitally nondegenerate
      but the spin degeneracy is treated
  (2) There are no thermally accessible electronically excited states
  (3) Hindered rotations indicated by low frequency modes are not
      treated as such but are treated as vibrations and this may
      cause some error
  (4) All equations used are the standard statistical mechanics
      equations for an ideal gas
  (5) All vibrations are strictly harmonic

freq.      57.72  E(vib)   ...       0.51 
freq.      66.28  E(vib)   ...       0.50 
freq.     148.09  E(vib)   ...       0.41 
freq.     330.32  E(vib)   ...       0.24 
freq.     531.14  E(vib)   ...       0.13 
freq.     589.98  E(vib)   ...       0.10 
freq.    1022.29  E(vib)   ...       0.02 
freq.    1088.94  E(vib)   ...       0.02 
freq.    1135.37  E(vib)   ...       0.01 
freq.    1270.39  E(vib)   ...       0.01 
freq.    1289.25  E(vib)   ...       0.01 
freq.    1418.43  E(vib)   ...       0.00 
freq.    1543.27  E(vib)   ...       0.00 
freq.    1827.28  E(vib)   ...       0.00 
freq.    2132.46  E(vib)   ...       0.00 
freq.    3125.56  E(vib)   ...       0.00 
freq.    3197.74  E(vib)   ...       0.00 

------------
INNER ENERGY
------------

The inner energy is: U= E(el) + E(ZPE) + E(vib) + E(rot) + E(trans)
    E(el)   - is the total energy from the electronic structure calculation
              = E(kin-el) + E(nuc-el) + E(el-el) + E(nuc-nuc)
    E(ZPE)  - the the zero temperature vibrational energy from the frequency calculation
    E(vib)  - the the finite temperature correction to E(ZPE) due to population
              of excited vibrational states
    E(rot)  - is the rotational thermal energy
    E(trans)- is the translational thermal energy

Summary of contributions to the inner energy U:
Electronic energy                ...   -351.83348872 Eh
Zero point energy                ...      0.04732784 Eh      29.70 kcal/mol
Thermal vibrational correction   ...      0.00313641 Eh       1.97 kcal/mol
Thermal rotational correction    ...      0.00141627 Eh       0.89 kcal/mol
Thermal translational correction ...      0.00141627 Eh       0.89 kcal/mol
-----------------------------------------------------------------------
Total thermal energy                   -351.78019193 Eh


Summary of corrections to the electronic energy:
(perhaps to be used in another calculation)
Total thermal correction                  0.00596895 Eh       3.75 kcal/mol
Non-thermal (ZPE) correction              0.04732784 Eh      29.70 kcal/mol
-----------------------------------------------------------------------
Total correction                          0.05329679 Eh      33.44 kcal/mol


--------
ENTHALPY
--------

The enthalpy is H = U + kB*T
                kB is Boltzmann's constant
Total free energy                 ...   -351.78019193 Eh 
Thermal Enthalpy correction       ...      0.00094421 Eh       0.59 kcal/mol
-----------------------------------------------------------------------
Total Enthalpy                    ...   -351.77924772 Eh


Note: Only C1 symmetry has been detected, increase convergence thresholds 
      if your molecule has a higher symmetry. Symmetry factor of 1.0 is   
      used for the rotational entropy correction. 
 

Note: Rotational entropy computed according to Herzberg 
Infrared and Raman Spectra, Chapter V,1, Van Nostrand Reinhold, 1945 
Point Group:  C1, Symmetry Number:   1  
Rotational constants in cm-1:     0.153235     0.135993     0.075449 

Vibrational entropy computed according to the QRRHO of S. Grimme
Chem.Eur.J. 2012 18 9955


-------
ENTROPY
-------

The entropy contributions are T*S = T*(S(el)+S(vib)+S(rot)+S(trans))
     S(el)   - electronic entropy
     S(vib)  - vibrational entropy
     S(rot)  - rotational entropy
     S(trans)- translational entropy
The entropies will be listed as multiplied by the temperature to get
units of energy

Electronic entropy                ...      0.00065446 Eh      0.41 kcal/mol
Vibrational entropy               ...      0.00579935 Eh      3.64 kcal/mol
Rotational entropy                ...      0.01255827 Eh      7.88 kcal/mol
Translational entropy             ...      0.01857352 Eh     11.66 kcal/mol
-----------------------------------------------------------------------
Final entropy term                ...      0.03758560 Eh     23.59 kcal/mol

In case the symmetry of your molecule has not been determined correctly
or in case you have a reason to use a different symmetry number we print 
out the resulting rotational entropy values for sn=1,12 :
 --------------------------------------------------------
|  sn= 1 | S(rot)=       0.01255827 Eh      7.88 kcal/mol|
|  sn= 2 | S(rot)=       0.01190381 Eh      7.47 kcal/mol|
|  sn= 3 | S(rot)=       0.01152098 Eh      7.23 kcal/mol|
|  sn= 4 | S(rot)=       0.01124935 Eh      7.06 kcal/mol|
|  sn= 5 | S(rot)=       0.01103867 Eh      6.93 kcal/mol|
|  sn= 6 | S(rot)=       0.01086652 Eh      6.82 kcal/mol|
|  sn= 7 | S(rot)=       0.01072097 Eh      6.73 kcal/mol|
|  sn= 8 | S(rot)=       0.01059490 Eh      6.65 kcal/mol|
|  sn= 9 | S(rot)=       0.01048369 Eh      6.58 kcal/mol|
|  sn=10 | S(rot)=       0.01038421 Eh      6.52 kcal/mol|
|  sn=11 | S(rot)=       0.01029422 Eh      6.46 kcal/mol|
|  sn=12 | S(rot)=       0.01021206 Eh      6.41 kcal/mol|
 --------------------------------------------------------


-------------------
GIBBS FREE ENERGY
-------------------

The Gibbs free energy is G = H - T*S

Total enthalpy                    ...   -351.77924772 Eh 
Total entropy correction          ...     -0.03758560 Eh    -23.59 kcal/mol
-----------------------------------------------------------------------
Final Gibbs free energy         ...   -351.81683332 Eh

For completeness - the Gibbs free energy minus the electronic energy
G-E(el)                           ...      0.01665541 Eh     10.45 kcal/mol



Timings for individual modules:

Sum of individual times         ...     2492.570 sec (=  41.543 min)
GTO integral calculation        ...       18.615 sec (=   0.310 min)   0.7 %
SCF iterations                  ...      438.519 sec (=   7.309 min)  17.6 %
MP2 module                      ...      795.133 sec (=  13.252 min)  31.9 %
Geometry relaxation             ...        4.121 sec (=   0.069 min)   0.2 %
Numerical frequency calculation ...     1236.182 sec (=  20.603 min)  49.6 %
                             ****ORCA TERMINATED NORMALLY****
TOTAL RUN TIME: 0 days 0 hours 41 minutes 32 seconds 951 msec
