
                                 *****************
                                 * O   R   C   A *
                                 *****************

                                            #,                                       
                                            ###                                      
                                            ####                                     
                                            #####                                    
                                            ######                                   
                                           ########,                                 
                                     ,,################,,,,,                         
                               ,,#################################,,                 
                          ,,##########################################,,             
                       ,#########################################, ''#####,          
                    ,#############################################,,   '####,        
                  ,##################################################,,,,####,       
                ,###########''''           ''''###############################       
              ,#####''   ,,,,##########,,,,          '''####'''          '####       
            ,##' ,,,,###########################,,,                        '##       
           ' ,,###''''                  '''############,,,                           
         ,,##''                                '''############,,,,        ,,,,,,###''
      ,#''                                            '''#######################'''  
     '                                                          ''''####''''         
             ,#######,   #######,   ,#######,      ##                                
            ,#'     '#,  ##    ##  ,#'     '#,    #''#        ######   ,####,        
            ##       ##  ##   ,#'  ##            #'  '#       #        #'  '#        
            ##       ##  #######   ##           ,######,      #####,   #    #        
            '#,     ,#'  ##    ##  '#,     ,#' ,#      #,         ##   #,  ,#        
             '#######'   ##     ##  '#######'  #'      '#     #####' # '####'        



                  #######################################################
                  #                        -***-                        #
                  #          Department of theory and spectroscopy      #
                  #    Directorship and core code : Frank Neese         #
                  #        Max Planck Institute fuer Kohlenforschung    #
                  #                Kaiser Wilhelm Platz 1               #
                  #                 D-45470 Muelheim/Ruhr               #
                  #                      Germany                        #
                  #                                                     #
                  #                  All rights reserved                #
                  #                        -***-                        #
                  #######################################################


                         Program Version 5.0.1 -  RELEASE  -


 With contributions from (in alphabetic order):
   Daniel Aravena         : Magnetic Suceptibility
   Michael Atanasov       : Ab Initio Ligand Field Theory (pilot matlab implementation)
   Alexander A. Auer      : GIAO ZORA, VPT2 properties, NMR spectrum
   Ute Becker             : Parallelization
   Giovanni Bistoni       : ED, misc. LED, open-shell LED, HFLD
   Martin Brehm           : Molecular dynamics
   Dmytro Bykov           : SCF Hessian
   Vijay G. Chilkuri      : MRCI spin determinant printing, contributions to CSF-ICE
   Dipayan Datta          : RHF DLPNO-CCSD density
   Achintya Kumar Dutta   : EOM-CC, STEOM-CC
   Dmitry Ganyushin       : Spin-Orbit,Spin-Spin,Magnetic field MRCI
   Miquel Garcia          : C-PCM and meta-GGA Hessian, CC/C-PCM, Gaussian charge scheme
   Yang Guo               : DLPNO-NEVPT2, F12-NEVPT2, CIM, IAO-localization
   Andreas Hansen         : Spin unrestricted coupled pair/coupled cluster methods
   Benjamin Helmich-Paris : MC-RPA, TRAH-SCF, COSX integrals
   Lee Huntington         : MR-EOM, pCC
   Robert Izsak           : Overlap fitted RIJCOSX, COSX-SCS-MP3, EOM
   Marcus Kettner         : VPT2
   Christian Kollmar      : KDIIS, OOCD, Brueckner-CCSD(T), CCSD density, CASPT2, CASPT2-K
   Simone Kossmann        : Meta GGA functionals, TD-DFT gradient, OOMP2, MP2 Hessian
   Martin Krupicka        : Initial AUTO-CI
   Lucas Lang             : DCDCAS
   Marvin Lechner         : AUTO-CI (C++ implementation), FIC-MRCC
   Dagmar Lenk            : GEPOL surface, SMD
   Dimitrios Liakos       : Extrapolation schemes; Compound Job, initial MDCI parallelization
   Dimitrios Manganas     : Further ROCIS development; embedding schemes
   Dimitrios Pantazis     : SARC Basis sets
   Anastasios Papadopoulos: AUTO-CI, single reference methods and gradients
   Taras Petrenko         : DFT Hessian,TD-DFT gradient, ASA, ECA, R-Raman, ABS, FL, XAS/XES, NRVS
   Peter Pinski           : DLPNO-MP2, DLPNO-MP2 Gradient
   Christoph Reimann      : Effective Core Potentials
   Marius Retegan         : Local ZFS, SOC
   Christoph Riplinger    : Optimizer, TS searches, QM/MM, DLPNO-CCSD(T), (RO)-DLPNO pert. Triples
   Tobias Risthaus        : Range-separated hybrids, TD-DFT gradient, RPA, STAB
   Michael Roemelt        : Original ROCIS implementation
   Masaaki Saitow         : Open-shell DLPNO-CCSD energy and density
   Barbara Sandhoefer     : DKH picture change effects
   Avijit Sen             : IP-ROCIS
   Kantharuban Sivalingam : CASSCF convergence, NEVPT2, FIC-MRCI
   Bernardo de Souza      : ESD, SOC TD-DFT
   Georgi Stoychev        : AutoAux, RI-MP2 NMR, DLPNO-MP2 response
   Willem Van den Heuvel  : Paramagnetic NMR
   Boris Wezisla          : Elementary symmetry handling
   Frank Wennmohs         : Technical directorship


 We gratefully acknowledge several colleagues who have allowed us to
 interface, adapt or use parts of their codes:
   Stefan Grimme, W. Hujo, H. Kruse, P. Pracht,  : VdW corrections, initial TS optimization,
                  C. Bannwarth, S. Ehlert          DFT functionals, gCP, sTDA/sTD-DF
   Ed Valeev, F. Pavosevic, A. Kumar             : LibInt (2-el integral package), F12 methods
   Garnet Chan, S. Sharma, J. Yang, R. Olivares  : DMRG
   Ulf Ekstrom                                   : XCFun DFT Library
   Mihaly Kallay                                 : mrcc  (arbitrary order and MRCC methods)
   Jiri Pittner, Ondrej Demel                    : Mk-CCSD
   Frank Weinhold                                : gennbo (NPA and NBO analysis)
   Christopher J. Cramer and Donald G. Truhlar   : smd solvation model
   Lars Goerigk                                  : TD-DFT with DH, B97 family of functionals
   V. Asgeirsson, H. Jonsson                     : NEB implementation
   FAccTs GmbH                                   : IRC, NEB, NEB-TS, DLPNO-Multilevel, CI-OPT
                                                   MM, QMMM, 2- and 3-layer-ONIOM, Crystal-QMMM,
                                                   LR-CPCM, SF, NACMEs, symmetry and pop. for TD-DFT,
                                                   nearIR, NL-DFT gradient (VV10), updates on ESD,
                                                   ML-optimized integration grids
   S Lehtola, MJT Oliveira, MAL Marques          : LibXC Library
   Liviu Ungur et al                             : ANISO software


 Your calculation uses the libint2 library for the computation of 2-el integrals
 For citations please refer to: http://libint.valeyev.net

 Your ORCA version has been built with support for libXC version: 5.1.0
 For citations please refer to: https://tddft.org/programs/libxc/

 This ORCA versions uses:
   CBLAS   interface :  Fast vector & matrix operations
   LAPACKE interface :  Fast linear algebra routines
   SCALAPACK package :  Parallel linear algebra routines
   Shared memory     :  Shared parallel matrices
   BLAS/LAPACK       :  OpenBLAS 0.3.15  USE64BITINT DYNAMIC_ARCH NO_AFFINITY Zen SINGLE_THREADED
        Core in use  :  Zen
   Copyright (c) 2011-2014, The OpenBLAS Project




***************************************
The coordinates will be read from file: input.xyz
***************************************


================================================================================

----- Orbital basis set information -----
Your calculation utilizes the basis: 6-31G(d)
   H-He, Li-Ne : W. J. Hehre, R. Ditchfield and J.A. Pople, J. Chem. Phys. 56, 2257 (1972).
                 Note: He and Ne are unpublished basis sets taken from the Gaussian program.
                 Note: Li and B from J. D. Dill and J. A. Pople, J. Chem. Phys. 62, 2921 (1975).
   Na - Ar     : M. M. Francl, W. J. Pietro, W. J. Hehre, J. S. Binkley, M. S. Gordon, 
                 D. J. DeFrees and J. A. Pople, J. Chem. Phys. 77, 3654 (1982).
   K - Zn      : V. A. Rassolov, J. A. Pople, M. A. Ratner, and T. L. Windus, J. Chem. Phys. 109, 1223 (1998).

================================================================================
                                        WARNINGS
                       Please study these warnings very carefully!
================================================================================


WARNING: Geometry Optimization
  ===> : Switching off AutoStart
         For restart on a previous wavefunction, please use MOREAD

WARNING: Post HF methods need fully converged wavefunctions
  ===> : Setting SCFConvForced true
         You can overwrite this default with %scf ConvForced false 


INFO   : the flag for use of the SHARK integral package has been found!

================================================================================
                                       INPUT FILE
================================================================================
NAME = input.orc
|  1> ! MP2 UHF 6-31G(d) OPTTS NumFreq NoFrozenCore VERYTIGHTSCF VERYTIGHTOPT
|  2> 
|  3> * XYZfile 0 2 input.xyz
|  4> 
|  5>                          ****END OF INPUT****
================================================================================

                       *****************************
                       * Geometry Optimization Run *
                       *****************************

Geometry optimization settings:
Update method            Update   .... Bofill
Choice of coordinates    CoordSys .... Z-matrix Internals
Initial Hessian          InHess   .... Almoef's Model

Convergence Tolerances:
Energy Change            TolE     ....  2.0000e-07 Eh
Max. Gradient            TolMAXG  ....  3.0000e-05 Eh/bohr
RMS Gradient             TolRMSG  ....  8.0000e-06 Eh/bohr
Max. Displacement        TolMAXD  ....  2.0000e-04 bohr
RMS Displacement         TolRMSD  ....  1.0000e-04 bohr
Strict Convergence                ....  False
------------------------------------------------------------------------------
                        ORCA OPTIMIZATION COORDINATE SETUP
------------------------------------------------------------------------------

The optimization will be done in new redundant internal coordinates
Making redundant internal coordinates   ...  (new redundants) done
Following TS mode number                ...     0
Evaluating the initial hessian          ...  (Almloef) done
Evaluating the coordinates              ...  done
Calculating the B-matrix                .... done
Calculating the G-matrix                .... done
Diagonalizing the G-matrix              .... done
The first mode is                       ....   10
The number of degrees of freedom        ....   18

    -----------------------------------------------------------------
                    Redundant Internal Coordinates


    -----------------------------------------------------------------
         Definition                    Initial Value    Approx d2E/dq
    -----------------------------------------------------------------
      1. B(H   1,C   0)                  1.0915         0.358110   
      2. B(C   2,C   0)                  1.5166         0.392457   
      3. B(F   3,C   2)                  1.6630         0.190696   
      4. B(O   4,C   2)                  1.1841         1.192192   
      5. B(H   5,C   0)                  1.0928         0.356442   
      6. B(F   6,C   0)                  1.3767         0.545960   
      7. B(H   7,C   2)                  1.2647         0.189515   
      8. A(H   1,C   0,H   5)          110.7178         0.290121   
      9. A(C   2,C   0,F   6)          110.9196         0.387147   
     10. A(H   1,C   0,C   2)          107.9531         0.326661   
     11. A(C   2,C   0,H   5)          107.2096         0.326411   
     12. A(H   5,C   0,F   6)          110.0396         0.341307   
     13. A(H   1,C   0,F   6)          109.9504         0.341574   
     14. A(O   4,C   2,H   7)          120.4064         0.351444   
     15. A(C   0,C   2,O   4)          128.2915         0.446794   
     16. A(F   3,C   2,H   7)           55.5373         0.261361   
     17. A(C   0,C   2,H   7)          107.8493         0.294781   
     18. A(F   3,C   2,O   4)          119.3986         0.388686   
     19. A(C   0,C   2,F   3)          102.0586         0.323982   
     20. D(F   3,C   2,C   0,H   5)    -70.7115         0.012238   
     21. D(F   3,C   2,C   0,F   6)     49.4503         0.012238   
     22. D(O   4,C   2,C   0,H   1)    -46.1088         0.012238   
     23. D(O   4,C   2,C   0,H   5)     73.2095         0.012238   
     24. D(O   4,C   2,C   0,F   6)   -166.6287         0.012238   
     25. D(H   7,C   2,C   0,H   1)    112.5932         0.012238   
     26. D(H   7,C   2,C   0,H   5)   -128.0886         0.012238   
     27. D(H   7,C   2,C   0,F   6)     -7.9268         0.012238   
     28. D(F   3,C   2,C   0,H   1)    169.9702         0.012238   
    -----------------------------------------------------------------

Number of atoms                         .... 8
Number of degrees of freedom            .... 28

         *************************************************************
         *                GEOMETRY OPTIMIZATION CYCLE   1            *
         *************************************************************
---------------------------------
CARTESIAN COORDINATES (ANGSTROEM)
---------------------------------
  C      0.634120   -0.031188    0.230259
  H      0.196852    0.158024    1.212291
  C      0.002814    0.932441   -0.756088
  F      0.952381    0.720744   -2.104873
  O     -1.142721    1.201616   -0.888117
  H      0.398096   -1.042583   -0.109651
  F      1.998836    0.142553    0.282336
  H      0.898226    1.741244   -1.135071

----------------------------
CARTESIAN COORDINATES (A.U.)
----------------------------
  NO LB      ZA    FRAG     MASS         X           Y           Z
   0 C     6.0000    0    12.011    1.198313   -0.058936    0.435126
   1 H     1.0000    0     1.008    0.371997    0.298623    2.290898
   2 C     6.0000    0    12.011    0.005318    1.762057   -1.428799
   3 F     9.0000    0    18.998    1.799740    1.362009   -3.977634
   4 O     8.0000    0    15.999   -2.159429    2.270725   -1.678298
   5 H     1.0000    0     1.008    0.752292   -1.970196   -0.207210
   6 F     9.0000    0    18.998    3.777252    0.269387    0.533538
   7 H     1.0000    0     1.008    1.697402    3.290475   -2.144973

--------------------------------
INTERNAL COORDINATES (ANGSTROEM)
--------------------------------
 C      0   0   0     0.000000000000     0.00000000     0.00000000
 H      1   0   0     1.091508805554     0.00000000     0.00000000
 C      1   2   0     1.516577551185   107.95308402     0.00000000
 F      3   1   2     1.663044113039   102.05861861   169.97022252
 O      3   1   2     1.184118572177   128.29149571   313.89120518
 H      1   2   3     1.092779124358   110.71784266   242.93098691
 F      1   2   3     1.376715924375   109.95041295   121.12511534
 H      3   1   2     1.264735032863   107.84929235   112.59315260

---------------------------
INTERNAL COORDINATES (A.U.)
---------------------------
 C      0   0   0     0.000000000000     0.00000000     0.00000000
 H      1   0   0     2.062652715261     0.00000000     0.00000000
 C      1   2   0     2.865916232592   107.95308402     0.00000000
 F      3   1   2     3.142697922273   102.05861861   169.97022252
 O      3   1   2     2.237659811504   128.29149571   313.89120518
 H      1   2   3     2.065053269904   110.71784266   242.93098691
 F      1   2   3     2.601616061278   109.95041295   121.12511534
 H      3   1   2     2.390002844087   107.84929235   112.59315260

---------------------
BASIS SET INFORMATION
---------------------
There are 4 groups of distinct atoms

 Group   1 Type C   : 10s4p1d contracted to 3s2p1d pattern {631/31/1}
 Group   2 Type H   : 4s contracted to 2s pattern {31}
 Group   3 Type F   : 10s4p1d contracted to 3s2p1d pattern {631/31/1}
 Group   4 Type O   : 10s4p1d contracted to 3s2p1d pattern {631/31/1}

Atom   0C    basis set group =>   1
Atom   1H    basis set group =>   2
Atom   2C    basis set group =>   1
Atom   3F    basis set group =>   3
Atom   4O    basis set group =>   4
Atom   5H    basis set group =>   2
Atom   6F    basis set group =>   3
Atom   7H    basis set group =>   2
------------------------------------------------------------------------------
                           ORCA GTO INTEGRAL CALCULATION
------------------------------------------------------------------------------
------------------------------------------------------------------------------
                   ___                                                        
                  /   \      - P O W E R E D   B Y -                         
                 /     \                                                     
                 |  |  |   _    _      __       _____    __    __             
                 |  |  |  | |  | |    /  \     |  _  \  |  |  /  |          
                  \  \/   | |  | |   /    \    | | | |  |  | /  /          
                 / \  \   | |__| |  /  /\  \   | |_| |  |  |/  /          
                |  |  |   |  __  | /  /__\  \  |    /   |      \           
                |  |  |   | |  | | |   __   |  |    \   |  |\   \          
                \     /   | |  | | |  |  |  |  | |\  \  |  | \   \       
                 \___/    |_|  |_| |__|  |__|  |_| \__\ |__|  \__/        
                                                                              
                      - O R C A' S   B I G   F R I E N D -                    
                                      &                                       
                       - I N T E G R A L  F E E D E R -                       
                                                                              
 v1 FN, 2020, v2 2021                                                         
------------------------------------------------------------------------------


Reading SHARK input file input.SHARKINP.tmp ... ok
----------------------
SHARK INTEGRAL PACKAGE
----------------------

Number of atoms                             ...      8
Number of basis functions                   ...     76
Number of shells                            ...     36
Maximum angular momentum                    ...      2
Integral batch strategy                     ... SHARK/LIBINT Hybrid
RI-J (if used) integral strategy            ... SPLIT-RIJ (Revised 2003 algorithm where possible)
Printlevel                                  ...      1
Contraction scheme used                     ... SEGMENTED contraction
Coulomb Range Separation                    ... NOT USED
Exchange Range Separation                   ... NOT USED
Finite Nucleus Model                        ... NOT USED
Auxiliary Coulomb fitting basis             ... NOT available
Auxiliary J/K fitting basis                 ... NOT available
Auxiliary Correlation fitting basis         ... NOT available
Auxiliary 'external' fitting basis          ... NOT available
Integral threshold                          ...     1.000000e-12
Primitive cut-off                           ...     1.000000e-14
Primitive pair pre-selection threshold      ...     1.000000e-14

Calculating pre-screening integrals         ... done (  0.0 sec) Dimension = 36
Organizing shell pair data                  ... done (  0.0 sec)
Shell pair information
Total number of shell pairs                 ...       666
Shell pairs after pre-screening             ...       656
Total number of primitive shell pairs       ...      3942
Primitive shell pairs kept                  ...      2896
          la=0 lb=0:    223 shell pairs
          la=1 lb=0:    208 shell pairs
          la=1 lb=1:     55 shell pairs
          la=2 lb=0:    105 shell pairs
          la=2 lb=1:     50 shell pairs
          la=2 lb=2:     15 shell pairs

Calculating one electron integrals          ... done (  0.0 sec)
Calculating Nuclear repulsion               ... done (  0.0 sec) ENN=    179.860535255835 Eh

SHARK setup successfully completed in   0.2 seconds

Maximum memory used throughout the entire GTOINT-calculation: 7.5 MB
-------------------------------------------------------------------------------
                                 ORCA SCF
-------------------------------------------------------------------------------

------------
SCF SETTINGS
------------
Hamiltonian:
 Ab initio Hamiltonian  Method          .... Hartree-Fock(GTOs)


General Settings:
 Integral files         IntName         .... input
 Hartree-Fock type      HFTyp           .... UHF
 Total Charge           Charge          ....    0
 Multiplicity           Mult            ....    2
 Number of Electrons    NEL             ....   41
 Basis Dimension        Dim             ....   76
 Nuclear Repulsion      ENuc            ....    179.8605352558 Eh

Convergence Acceleration:
 DIIS                   CNVDIIS         .... on
   Start iteration      DIISMaxIt       ....    12
   Startup error        DIISStart       ....  0.200000
   # of expansion vecs  DIISMaxEq       ....     5
   Bias factor          DIISBfac        ....   1.050
   Max. coefficient     DIISMaxC        ....  10.000
 Trust-Rad. Augm. Hess. CNVTRAH         .... auto
   Auto Start mean grad. ratio tolernc. ....  1.125000
   Auto Start start iteration           ....    20
   Auto Start num. interpolation iter.  ....    10
   Max. Number of Micro iterations      ....    16
   Max. Number of Macro iterations      .... Maxiter - #DIIS iter
   Number of Davidson start vectors     ....     2
   Converg. threshold I  (grad. norm)   ....   2.000e-06
   Converg. threshold II (energy diff.) ....   1.000e-09
   Grad. Scal. Fac. for Micro threshold ....   0.100
   Minimum threshold for Micro iter.    ....   0.010
   NR start threshold (gradient norm)   ....   0.001
   Initial trust radius                 ....   0.400
   Minimum AH scaling param. (alpha)    ....   1.000
   Maximum AH scaling param. (alpha)    .... 1000.000
   Orbital update algorithm             .... Taylor
   White noise on init. David. guess    .... on
   Maximum white noise                  ....   0.010
   Quad. conv. algorithm                .... NR
 SOSCF                  CNVSOSCF        .... off
 Level Shifting         CNVShift        .... on
   Level shift para.    LevelShift      ....    0.2500
   Turn off err/grad.   ShiftErr        ....    0.0010
 Zerner damping         CNVZerner       .... off
 Static damping         CNVDamp         .... on
   Fraction old density DampFac         ....    0.7000
   Max. Damping (<1)    DampMax         ....    0.9800
   Min. Damping (>=0)   DampMin         ....    0.0000
   Turn off err/grad.   DampErr         ....    0.1000
 Fernandez-Rico         CNVRico         .... off

SCF Procedure:
 Maximum # iterations   MaxIter         ....   125
 SCF integral mode      SCFMode         .... Direct
   Integral package                     .... SHARK and LIBINT hybrid scheme
 Reset frequency        DirectResetFreq ....    20
 Integral Threshold     Thresh          ....  1.000e-12 Eh
 Primitive CutOff       TCut            ....  1.000e-14 Eh

Convergence Tolerance:
 Convergence Check Mode ConvCheckMode   .... Total+1el-Energy
 Convergence forced     ConvForced      .... 1
 Energy Change          TolE            ....  1.000e-09 Eh
 1-El. energy change                    ....  1.000e-06 Eh
 DIIS Error             TolErr          ....  1.000e-08


Diagonalization of the overlap matrix:
Smallest eigenvalue                        ... 6.041e-03
Time for diagonalization                   ...    0.001 sec
Threshold for overlap eigenvalues          ... 1.000e-08
Number of eigenvalues below threshold      ... 0
Time for construction of square roots      ...    0.019 sec
Total time needed                          ...    0.020 sec

Time for model grid setup =    0.082 sec

------------------------------
INITIAL GUESS: MODEL POTENTIAL
------------------------------
Loading Hartree-Fock densities                     ... done
Calculating cut-offs                               ... done
Initializing the effective Hamiltonian             ... done
Setting up the integral package (SHARK)            ... done
Starting the Coulomb interaction                   ... done (   0.1 sec)
Reading the grid                                   ... done
Mapping shells                                     ... done
Starting the XC term evaluation                    ... done (   0.0 sec)
Transforming the Hamiltonian                       ... done (   0.0 sec)
Diagonalizing the Hamiltonian                      ... done (   0.0 sec)
Back transforming the eigenvectors                 ... done (   0.0 sec)
Now organizing SCF variables                       ... done
                      ------------------
                      INITIAL GUESS DONE (   0.2 sec)
                      ------------------
--------------
SCF ITERATIONS
--------------
ITER       Energy         Delta-E        Max-DP      RMS-DP      [F,P]     Damp
               ***  Starting incremental Fock matrix formation  ***
  0   -350.9237842976   0.000000000000 0.03272285  0.00111840  0.2177819 0.7000
  1   -350.9658809843  -0.042096686703 0.02480208  0.00083039  0.1288212 0.7000
                               ***Turning on DIIS***
  2   -350.9913392725  -0.025458288250 0.05324532  0.00182958  0.0694052 0.0000
  3   -350.8777054961   0.113633776405 0.01930796  0.00065317  0.0479649 0.0000
  4   -351.1021753666  -0.224469870514 0.01129329  0.00032189  0.0138123 0.0000
  5   -351.0546837644   0.047491602189 0.00708113  0.00023382  0.0062405 0.0000
  6   -351.0562592868  -0.001575522372 0.00801341  0.00025755  0.0059212 0.0000
  7   -351.0604120269  -0.004152740080 0.00811549  0.00027028  0.0046723 0.0000
  8   -351.0566782871   0.003733739824 0.00894858  0.00030452  0.0034372 0.0000
  9   -351.0572201846  -0.000541897501 0.00651933  0.00024832  0.0018956 0.0000
 10   -351.0577383582  -0.000518173578 0.00405360  0.00015630  0.0012371 0.0000
 11   -351.0563102612   0.001428096995 0.00463031  0.00016959  0.0009840 0.0000
 12   -351.0563965147  -0.000086253549 0.00130245  0.00004684  0.0006232 0.0000
 13   -351.0563124013   0.000084113428 0.00080179  0.00002498  0.0003760 0.0000
 14   -351.0564953149  -0.000182913627 0.00032740  0.00000937  0.0001746 0.0000
 15   -351.0568402848  -0.000344969926 0.00017930  0.00000442  0.0000858 0.0000
 16   -351.0567491574   0.000091127474 0.00008401  0.00000304  0.0000561 0.0000
 17   -351.0568120694  -0.000062912089 0.00013166  0.00000425  0.0000483 0.0000
 18   -351.0568617793  -0.000049709852 0.00013857  0.00000460  0.0000387 0.0000
 19   -351.0568635829  -0.000001803649 0.00013423  0.00000442  0.0000298 0.0000
               *** Restarting incremental Fock matrix formation ***
                                   *** Resetting DIIS ***
 20   -351.0567835599   0.000080023072 0.00002030  0.00000084  0.0000203 0.0000
 21   -351.0567949264  -0.000011366499 0.00003308  0.00000134  0.0000176 0.0000
 22   -351.0567907082   0.000004218130 0.00005601  0.00000223  0.0000140 0.0000
 23   -351.0567904207   0.000000287589 0.00003480  0.00000141  0.0000108 0.0000
 24   -351.0568052585  -0.000014837800 0.00003715  0.00000156  0.0000067 0.0000
 25   -351.0568189712  -0.000013712734 0.00004488  0.00000182  0.0000049 0.0000
 26   -351.0567970429   0.000021928271 0.00001468  0.00000049  0.0000024 0.0000
 27   -351.0567875367   0.000009506211 0.00000567  0.00000018  0.0000013 0.0000
 28   -351.0567850866   0.000002450135 0.00000316  0.00000012  0.0000011 0.0000
 29   -351.0567835673   0.000001519240 0.00000293  0.00000013  0.0000008 0.0000
 30   -351.0567832585   0.000000308783 0.00000268  0.00000010  0.0000006 0.0000
 31   -351.0567831202   0.000000138380 0.00000077  0.00000003  0.0000003 0.0000
 32   -351.0567831216  -0.000000001445 0.00000027  0.00000001  0.0000002 0.0000
 33   -351.0567836721  -0.000000550497 0.00000027  0.00000001  0.0000001 0.0000
 34   -351.0567835764   0.000000095668 0.00000019  0.00000001  0.0000001 0.0000
 35   -351.0567836758  -0.000000099353 0.00000025  0.00000001  0.0000001 0.0000
 36   -351.0567837188  -0.000000043002 0.00000024  0.00000001  0.0000001 0.0000
 37   -351.0567838327  -0.000000113942 0.00000037  0.00000001  0.0000001 0.0000
 38   -351.0567838448  -0.000000012050 0.00000035  0.00000001  0.0000000 0.0000
 39   -351.0567837205   0.000000124295 0.00000023  0.00000001  0.0000000 0.0000
               *** Restarting incremental Fock matrix formation ***
                                   *** Resetting DIIS ***
 40   -351.0567836225   0.000000098001 0.00000002  0.00000000  0.0000000 0.0000
                            ***DIIS convergence achieved***

               *****************************************************
               *                     SUCCESS                       *
               *           SCF CONVERGED AFTER  41 CYCLES          *
               *****************************************************


----------------
TOTAL SCF ENERGY
----------------

Total Energy       :         -351.05678362 Eh           -9552.74073 eV

Components:
Nuclear Repulsion  :          179.86053526 Eh            4894.25398 eV
Electronic Energy  :         -530.91731887 Eh          -14446.99472 eV
One Electron Energy:         -843.35486231 Eh          -22948.85250 eV
Two Electron Energy:          312.43754344 Eh            8501.85778 eV

Virial components:
Potential Energy   :         -701.93614192 Eh          -19100.65348 eV
Kinetic Energy     :          350.87935830 Eh            9547.91275 eV
Virial Ratio       :            2.00050566


---------------
SCF CONVERGENCE
---------------

  Last Energy change         ...    5.5608e-09  Tolerance :   1.0000e-09
  Last MAX-Density change    ...    1.9133e-08  Tolerance :   1.0000e-08
  Last RMS-Density change    ...    6.9637e-10  Tolerance :   1.0000e-09
  Last DIIS Error            ...    1.6790e-08  Tolerance :   1.0000e-08

             **** THE GBW FILE WAS UPDATED (input.gbw) ****
             **** DENSITY input.scfp WAS UPDATED ****
             **** ENERGY FILE WAS UPDATED (input.en.tmp) ****
----------------------
UHF SPIN CONTAMINATION
----------------------

Expectation value of <S**2>     :     0.832507
Ideal value S*(S+1) for S=0.5   :     0.750000
Deviation                       :     0.082507

             **** THE GBW FILE WAS UPDATED (input.gbw) ****
             **** DENSITY input.scfp WAS UPDATED ****
----------------
ORBITAL ENERGIES
----------------
                 SPIN UP ORBITALS
  NO   OCC          E(Eh)            E(eV) 
   0   1.0000     -26.309029      -715.9051 
   1   1.0000     -26.302947      -715.7396 
   2   1.0000     -20.644026      -561.7525 
   3   1.0000     -11.402982      -310.2909 
   4   1.0000     -11.355767      -309.0061 
   5   1.0000      -1.621028       -44.1104 
   6   1.0000      -1.595043       -43.4033 
   7   1.0000      -1.490727       -40.5647 
   8   1.0000      -1.047502       -28.5040 
   9   1.0000      -0.887987       -24.1634 
  10   1.0000      -0.769022       -20.9262 
  11   1.0000      -0.747211       -20.3327 
  12   1.0000      -0.739139       -20.1130 
  13   1.0000      -0.709303       -19.3011 
  14   1.0000      -0.691277       -18.8106 
  15   1.0000      -0.651632       -17.7318 
  16   1.0000      -0.640157       -17.4195 
  17   1.0000      -0.610470       -16.6117 
  18   1.0000      -0.563874       -15.3438 
  19   1.0000      -0.542362       -14.7584 
  20   1.0000      -0.446065       -12.1380 
  21   0.0000       0.188803         5.1376 
  22   0.0000       0.224076         6.0974 
  23   0.0000       0.243782         6.6336 
  24   0.0000       0.300178         8.1683 
  25   0.0000       0.313839         8.5400 
  26   0.0000       0.420564        11.4441 
  27   0.0000       0.448866        12.2143 
  28   0.0000       0.718210        19.5435 
  29   0.0000       0.754979        20.5440 
  30   0.0000       0.763405        20.7733 
  31   0.0000       0.848462        23.0878 
  32   0.0000       0.875277        23.8175 
  33   0.0000       0.882871        24.0241 
  34   0.0000       0.954596        25.9759 
  35   0.0000       1.045119        28.4391 
  36   0.0000       1.085190        29.5295 
  37   0.0000       1.088753        29.6265 
  38   0.0000       1.135102        30.8877 
  39   0.0000       1.237327        33.6694 
  40   0.0000       1.286194        34.9991 
  41   0.0000       1.305678        35.5293 
  42   0.0000       1.496238        40.7147 
  43   0.0000       1.529093        41.6087 
  44   0.0000       1.541929        41.9580 
  45   0.0000       1.583153        43.0798 
  46   0.0000       1.642665        44.6992 
  47   0.0000       1.674514        45.5659 
  48   0.0000       1.709282        46.5119 
  49   0.0000       1.730325        47.0845 
  50   0.0000       1.814957        49.3875 
  51   0.0000       1.906546        51.8798 
  52   0.0000       1.980812        53.9006 
  53   0.0000       1.992134        54.2087 
  54   0.0000       2.050820        55.8057 
  55   0.0000       2.089904        56.8692 
  56   0.0000       2.101119        57.1743 
  57   0.0000       2.112413        57.4817 
  58   0.0000       2.144978        58.3678 
  59   0.0000       2.187377        59.5216 
  60   0.0000       2.237152        60.8760 
  61   0.0000       2.258502        61.4570 
  62   0.0000       2.308119        62.8071 
  63   0.0000       2.348127        63.8958 
  64   0.0000       2.379078        64.7380 
  65   0.0000       2.436899        66.3114 
  66   0.0000       2.478157        67.4341 
  67   0.0000       2.566869        69.8481 
  68   0.0000       2.708270        73.6958 
  69   0.0000       2.747244        74.7563 
  70   0.0000       2.934279        79.8458 
  71   0.0000       3.019630        82.1683 
  72   0.0000       3.068742        83.5047 
  73   0.0000       3.299098        89.7730 
  74   0.0000       3.352531        91.2270 
  75   0.0000       3.405083        92.6570 

                 SPIN DOWN ORBITALS
  NO   OCC          E(Eh)            E(eV) 
   0   1.0000     -26.309291      -715.9122 
   1   1.0000     -26.278461      -715.0733 
   2   1.0000     -20.620862      -561.1222 
   3   1.0000     -11.407302      -310.4085 
   4   1.0000     -11.353626      -308.9479 
   5   1.0000      -1.620052       -44.0839 
   6   1.0000      -1.526157       -41.5289 
   7   1.0000      -1.435841       -39.0712 
   8   1.0000      -1.034844       -28.1595 
   9   1.0000      -0.829674       -22.5766 
  10   1.0000      -0.742316       -20.1994 
  11   1.0000      -0.733055       -19.9474 
  12   1.0000      -0.721245       -19.6261 
  13   1.0000      -0.673638       -18.3306 
  14   1.0000      -0.659407       -17.9434 
  15   1.0000      -0.625150       -17.0112 
  16   1.0000      -0.598478       -16.2854 
  17   1.0000      -0.569659       -15.5012 
  18   1.0000      -0.513125       -13.9628 
  19   1.0000      -0.460043       -12.5184 
  20   0.0000       0.029002         0.7892 
  21   0.0000       0.220132         5.9901 
  22   0.0000       0.238094         6.4789 
  23   0.0000       0.254487         6.9250 
  24   0.0000       0.312635         8.5072 
  25   0.0000       0.320684         8.7262 
  26   0.0000       0.428022        11.6471 
  27   0.0000       0.456584        12.4243 
  28   0.0000       0.714902        19.4535 
  29   0.0000       0.756457        20.5842 
  30   0.0000       0.766724        20.8636 
  31   0.0000       0.852318        23.1927 
  32   0.0000       0.878556        23.9067 
  33   0.0000       0.923344        25.1255 
  34   0.0000       0.976480        26.5714 
  35   0.0000       1.050671        28.5902 
  36   0.0000       1.092461        29.7274 
  37   0.0000       1.095721        29.8161 
  38   0.0000       1.138607        30.9831 
  39   0.0000       1.283413        34.9234 
  40   0.0000       1.301403        35.4130 
  41   0.0000       1.340921        36.4883 
  42   0.0000       1.500144        40.8210 
  43   0.0000       1.535763        41.7902 
  44   0.0000       1.556491        42.3543 
  45   0.0000       1.607369        43.7387 
  46   0.0000       1.668092        45.3911 
  47   0.0000       1.677102        45.6363 
  48   0.0000       1.720538        46.8182 
  49   0.0000       1.751335        47.6562 
  50   0.0000       1.825814        49.6829 
  51   0.0000       1.917292        52.1722 
  52   0.0000       2.002632        54.4944 
  53   0.0000       2.017014        54.8857 
  54   0.0000       2.068538        56.2878 
  55   0.0000       2.100364        57.1538 
  56   0.0000       2.114904        57.5495 
  57   0.0000       2.129411        57.9442 
  58   0.0000       2.153811        58.6082 
  59   0.0000       2.200054        59.8665 
  60   0.0000       2.253465        61.3199 
  61   0.0000       2.280555        62.0571 
  62   0.0000       2.319587        63.1192 
  63   0.0000       2.358683        64.1830 
  64   0.0000       2.382955        64.8435 
  65   0.0000       2.445546        66.5467 
  66   0.0000       2.484910        67.6178 
  67   0.0000       2.574728        70.0619 
  68   0.0000       2.717440        73.9453 
  69   0.0000       2.751549        74.8735 
  70   0.0000       2.939657        79.9921 
  71   0.0000       3.030727        82.4703 
  72   0.0000       3.083584        83.9086 
  73   0.0000       3.310065        90.0715 
  74   0.0000       3.359193        91.4083 
  75   0.0000       3.407603        92.7256 

                    ********************************
                    * MULLIKEN POPULATION ANALYSIS *
                    ********************************

--------------------------------------------
MULLIKEN ATOMIC CHARGES AND SPIN POPULATIONS
--------------------------------------------
   0 C :    0.130238    0.051840
   1 H :    0.201498   -0.009606
   2 C :    0.359127   -0.156166
   3 F :   -0.442754    0.317301
   4 O :   -0.376650    0.508753
   5 H :    0.208497    0.003293
   6 F :   -0.433446   -0.003943
   7 H :    0.353491    0.288527
Sum of atomic charges         :   -0.0000000
Sum of atomic spin populations:    1.0000000

-----------------------------------------------------
MULLIKEN REDUCED ORBITAL CHARGES AND SPIN POPULATIONS
-----------------------------------------------------
CHARGE
  0 C s       :     3.177879  s :     3.177879
      pz      :     1.014585  p :     2.610086
      px      :     0.570525
      py      :     1.024977
      dz2     :     0.012966  d :     0.081797
      dxz     :     0.019913
      dyz     :     0.010257
      dx2y2   :     0.023057
      dxy     :     0.015604
  1 H s       :     0.798502  s :     0.798502
  2 C s       :     3.157360  s :     3.157360
      pz      :     0.611650  p :     2.368560
      px      :     0.813681
      py      :     0.943230
      dz2     :     0.014012  d :     0.114952
      dxz     :     0.038737
      dyz     :     0.009565
      dx2y2   :     0.021720
      dxy     :     0.030919
  3 F s       :     3.997860  s :     3.997860
      pz      :     1.709438  p :     5.433674
      px      :     1.866731
      py      :     1.857505
      dz2     :     0.002234  d :     0.011220
      dxz     :     0.003710
      dyz     :     0.003799
      dx2y2   :     0.001041
      dxy     :     0.000436
  4 O s       :     3.874357  s :     3.874357
      pz      :     1.713633  p :     4.467463
      px      :     1.367924
      py      :     1.385905
      dz2     :     0.003388  d :     0.034831
      dxz     :     0.009504
      dyz     :     0.000656
      dx2y2   :     0.009172
      dxy     :     0.012110
  5 H s       :     0.791503  s :     0.791503
  6 F s       :     3.980200  s :     3.980200
      pz      :     1.956303  p :     5.435823
      px      :     1.533935
      py      :     1.945585
      dz2     :     0.002859  d :     0.017423
      dxz     :     0.003137
      dyz     :     0.000067
      dx2y2   :     0.007989
      dxy     :     0.003371
  7 H s       :     0.646509  s :     0.646509

SPIN
  0 C s       :     0.003571  s :     0.003571
      pz      :     0.024181  p :     0.049020
      px      :     0.009811
      py      :     0.015027
      dz2     :    -0.000443  d :    -0.000750
      dxz     :     0.000324
      dyz     :    -0.000221
      dx2y2   :    -0.000673
      dxy     :     0.000263
  1 H s       :    -0.009606  s :    -0.009606
  2 C s       :     0.002536  s :     0.002536
      pz      :    -0.085354  p :    -0.172208
      px      :     0.014983
      py      :    -0.101836
      dz2     :     0.001651  d :     0.013505
      dxz     :    -0.002996
      dyz     :     0.000749
      dx2y2   :     0.000338
      dxy     :     0.013763
  3 F s       :    -0.001953  s :    -0.001953
      pz      :     0.185734  p :     0.321744
      px      :     0.027559
      py      :     0.108450
      dz2     :    -0.000542  d :    -0.002489
      dxz     :    -0.000702
      dyz     :    -0.001200
      dx2y2   :     0.000017
      dxy     :    -0.000062
  4 O s       :     0.022073  s :     0.022073
      pz      :     0.012446  p :     0.491513
      px      :     0.047976
      py      :     0.431090
      dz2     :    -0.000240  d :    -0.004832
      dxz     :    -0.000212
      dyz     :    -0.000060
      dx2y2   :    -0.000754
      dxy     :    -0.003566
  5 H s       :     0.003293  s :     0.003293
  6 F s       :     0.000207  s :     0.000207
      pz      :     0.000249  p :    -0.004220
      px      :    -0.004306
      py      :    -0.000164
      dz2     :     0.000010  d :     0.000070
      dxz     :    -0.000003
      dyz     :    -0.000019
      dx2y2   :     0.000064
      dxy     :     0.000019
  7 H s       :     0.288527  s :     0.288527


                     *******************************
                     * LOEWDIN POPULATION ANALYSIS *
                     *******************************

-------------------------------------------
LOEWDIN ATOMIC CHARGES AND SPIN POPULATIONS
-------------------------------------------
   0 C :   -0.012972    0.041656
   1 H :    0.144736   -0.007031
   2 C :    0.112060   -0.087025
   3 F :   -0.335571    0.343595
   4 O :   -0.135017    0.459537
   5 H :    0.149236    0.001146
   6 F :   -0.211790   -0.003022
   7 H :    0.289318    0.251143

----------------------------------------------------
LOEWDIN REDUCED ORBITAL CHARGES AND SPIN POPULATIONS
----------------------------------------------------
CHARGE
  0 C s       :     2.941493  s :     2.941493
      pz      :     1.087563  p :     2.902219
      px      :     0.721991
      py      :     1.092664
      dz2     :     0.025359  d :     0.169260
      dxz     :     0.040753
      dyz     :     0.018550
      dx2y2   :     0.050656
      dxy     :     0.033943
  1 H s       :     0.855264  s :     0.855264
  2 C s       :     2.923797  s :     2.923797
      pz      :     0.738854  p :     2.713574
      px      :     0.991247
      py      :     0.983473
      dz2     :     0.030572  d :     0.250569
      dxz     :     0.087082
      dyz     :     0.019529
      dx2y2   :     0.050225
      dxy     :     0.063161
  3 F s       :     3.875231  s :     3.875231
      pz      :     1.709793  p :     5.439295
      px      :     1.869635
      py      :     1.859868
      dz2     :     0.004402  d :     0.021044
      dxz     :     0.006225
      dyz     :     0.007685
      dx2y2   :     0.001832
      dxy     :     0.000900
  4 O s       :     3.546572  s :     3.546572
      pz      :     1.670146  p :     4.524989
      px      :     1.480195
      py      :     1.374648
      dz2     :     0.007515  d :     0.063456
      dxz     :     0.012390
      dyz     :     0.000953
      dx2y2   :     0.021607
      dxy     :     0.020990
  5 H s       :     0.850764  s :     0.850764
  6 F s       :     3.755190  s :     3.755190
      pz      :     1.945120  p :     5.424580
      px      :     1.541551
      py      :     1.937909
      dz2     :     0.004283  d :     0.032020
      dxz     :     0.007440
      dyz     :     0.000257
      dx2y2   :     0.012289
      dxy     :     0.007751
  7 H s       :     0.710682  s :     0.710682

SPIN
  0 C s       :     0.006531  s :     0.006531
      pz      :     0.015888  p :     0.037747
      px      :     0.007337
      py      :     0.014523
      dz2     :    -0.000877  d :    -0.002622
      dxz     :     0.000035
      dyz     :    -0.000520
      dx2y2   :    -0.001302
      dxy     :     0.000040
  1 H s       :    -0.007031  s :    -0.007031
  2 C s       :    -0.006561  s :    -0.006561
      pz      :    -0.075107  p :    -0.116393
      px      :     0.007578
      py      :    -0.048865
      dz2     :     0.004224  d :     0.035930
      dxz     :    -0.004054
      dyz     :     0.001233
      dx2y2   :     0.001536
      dxy     :     0.032991
  3 F s       :     0.013452  s :     0.013452
      pz      :     0.187994  p :     0.329384
      px      :     0.023920
      py      :     0.117470
      dz2     :    -0.000164  d :     0.000759
      dxz     :    -0.000774
      dyz     :     0.001543
      dx2y2   :     0.000253
      dxy     :    -0.000098
  4 O s       :     0.012155  s :     0.012155
      pz      :     0.008423  p :     0.454141
      px      :     0.039782
      py      :     0.405936
      dz2     :    -0.000468  d :    -0.006759
      dxz     :    -0.001706
      dyz     :    -0.000034
      dx2y2   :    -0.000919
      dxy     :    -0.003633
  5 H s       :     0.001146  s :     0.001146
  6 F s       :    -0.000006  s :    -0.000006
      pz      :     0.000285  p :    -0.003421
      px      :    -0.003711
      py      :     0.000005
      dz2     :     0.000000  d :     0.000405
      dxz     :     0.000074
      dyz     :     0.000050
      dx2y2   :     0.000184
      dxy     :     0.000098
  7 H s       :     0.251143  s :     0.251143


                      *****************************
                      * MAYER POPULATION ANALYSIS *
                      *****************************

  NA   - Mulliken gross atomic population
  ZA   - Total nuclear charge
  QA   - Mulliken gross atomic charge
  VA   - Mayer's total valence
  BVA  - Mayer's bonded valence
  FA   - Mayer's free valence

  ATOM       NA         ZA         QA         VA         BVA        FA
  0 C      5.8698     6.0000     0.1302     3.5350     3.5316     0.0034
  1 H      0.7985     1.0000     0.2015     0.9171     0.9170     0.0001
  2 C      5.6409     6.0000     0.3591     3.6753     3.6161     0.0592
  3 F      9.4428     9.0000    -0.4428     0.8438     0.7131     0.1307
  4 O      8.3767     8.0000    -0.3767     2.0951     1.8523     0.2428
  5 H      0.7915     1.0000     0.2085     0.9157     0.9156     0.0000
  6 F      9.4334     9.0000    -0.4334     0.8207     0.8207     0.0000
  7 H      0.6465     1.0000     0.3535     0.8502     0.7671     0.0831

  Mayer bond orders larger than 0.100000
B(  0-C ,  1-H ) :   0.9278 B(  0-C ,  2-C ) :   0.8861 B(  0-C ,  5-H ) :   0.9246 
B(  0-C ,  6-F ) :   0.7798 B(  2-C ,  3-F ) :   0.4124 B(  2-C ,  4-O ) :   1.7409 
B(  2-C ,  7-H ) :   0.5718 B(  3-F ,  7-H ) :   0.1883 

-------
TIMINGS
-------

Total SCF time: 0 days 0 hours 0 min 12 sec 

Total time                  ....      12.521 sec
Sum of individual times     ....      12.141 sec  ( 97.0%)

Fock matrix formation       ....      11.634 sec  ( 92.9%)
Diagonalization             ....       0.098 sec  (  0.8%)
Density matrix formation    ....       0.003 sec  (  0.0%)
Population analysis         ....       0.093 sec  (  0.7%)
Initial guess               ....       0.149 sec  (  1.2%)
Orbital Transformation      ....       0.000 sec  (  0.0%)
Orbital Orthonormalization  ....       0.000 sec  (  0.0%)
DIIS solution               ....       0.083 sec  (  0.7%)

Maximum memory used throughout the entire SCF-calculation: 230.5 MB

------------------------------------------------------------------------------
                                ORCA  MP2 
------------------------------------------------------------------------------

MP2 will be done in the AO integral direct mode
The Q1-step will be done using symmetric double matrices
Dimension of the basis                    ...   76
Memory devoted for MP2                    ...  256 MB   
Memory needed for all in one shot         ...   37 MB
Number of MOs that can be treated together...  149      
MP2 density construction                  ... relaxed
The MP2 gradient is requested => amplitudes will be stored on disk
Total number of MOs              ...   21
Number of MOs treated per batch  ...   21 
Number of batches necessary      ...    1 
OPERATORS   0/  0 PASS   0
OPERATORS   0/  1 PASS   0
Total number of MOs              ...   21
Number of MOs treated per batch  ...   20 
Number of batches necessary      ...    1 
OPERATORS   1/  0 PASS   0
OPERATORS   1/  1 PASS   0

Correlation energy components
 E2 and T2 for alpha/alpha pairs :     -0.104329147 Eh
 E2 and T2 for beta/beta   pairs :     -0.111970193 Eh
 E2 and T2 for alpha/beta  pairs :     -0.564709919 Eh

-----------------------------------------------
 MP2 CORRELATION ENERGY   :     -0.781009258 Eh
-----------------------------------------------


---------------------
MP2 DENSITY FORMATION
---------------------

Completing the external part of the density      ... done
Storing the unrelaxed density                    ... done

Calculating G(D)                                 ... done
Completing the Lagrangian                        ... done
Solving the Z-vector equations                   ... 

------------------------------------------------------------------------------
                           ORCA CP-SCF CALCULATION
------------------------------------------------------------------------------

Input orbitals are from        ... input.gbw
Input Perturbation             ... input.pin.tmp
Wavefunction output            ... input.pout.tmp
Perturbation mode              ... Real perturbation (singlet)
Solver                         ... POPLE
Max. number of iterations      ... 128
Convergence tolerance          ... 3.000e-05
Integral handling              ... Direct
Number of perturbations        ... 1
Number of operators            ... 2
Orbital ranges used for CP-SCF:
 Operator 0:  Orbitals   0... 20  to  21... 75
 Operator 1:  Orbitals   0... 19  to  20... 75
Variables per perturbation     ... 2275
Memory available               ... 1015.5 MB
Memory needed per perturbation ...   4.7 MB
Perturbations treated per batch... 1
Number of batches              ... 1
     CP-SCF ITERATION   0:   1.2731e-01 (   0.5 sec)
     CP-SCF ITERATION   1:   9.5360e-02 (   0.3 sec)
     CP-SCF ITERATION   2:   5.7585e-02 (   0.3 sec)
     CP-SCF ITERATION   3:   3.3790e-02 (   0.3 sec)
     CP-SCF ITERATION   4:   1.8079e-02 (   0.3 sec)
     CP-SCF ITERATION   5:   1.0590e-02 (   0.3 sec)
     CP-SCF ITERATION   6:   3.6825e-03 (   0.3 sec)
     CP-SCF ITERATION   7:   1.8670e-03 (   0.3 sec)
     CP-SCF ITERATION   8:   1.3658e-03 (   0.3 sec)
     CP-SCF ITERATION   9:   1.4192e-03 (   0.3 sec)
     CP-SCF ITERATION  10:   8.7187e-04 (   0.3 sec)
     CP-SCF ITERATION  11:   5.0701e-04 (   0.3 sec)
     CP-SCF ITERATION  12:   2.4194e-04 (   0.3 sec)
     CP-SCF ITERATION  13:   1.1531e-04 (   0.3 sec)
     CP-SCF ITERATION  14:   5.4701e-05 (   0.3 sec)
     CP-SCF ITERATION  15:   2.7406e-05 (   0.3 sec)
                    *** THE CP-SCF HAS CONVERGED ***
                                                 ... done
Finalizing the relaxed density                   ... done
Transforming P to the AO basis                   ... done
Storing the relaxed density                      ... done

------------------------------------
ENERGY WEIGHTED DENSITY FINALIZATION
------------------------------------

Gathering the parts of the W-matrix              ...                                                                                                           done
Forming the Z-density                            ... done
Transforming Z to the AO basis                   ... done
Calculating G(Z)                                 ... done
Finalizing the W-matrix                          ...                                                                                                           done
Transforming W to the AO basis and storing       ... done

                *********************************************
                * UNRELAXED MP2 DENSITY POPULATION ANALYSIS *
                *********************************************

------------------------------------------------------------------------------
                           ORCA POPULATION ANALYSIS
------------------------------------------------------------------------------
Input electron density              ... input.pmp2ur
Input spin density                  ... input.rmp2ur
BaseName (.gbw .S,...)              ... input

                    ********************************
                    * MULLIKEN POPULATION ANALYSIS *
                    ********************************

------------------------------------------
MULLIKEN ATOMIC CHARGES AND SPIN DENSITIES
------------------------------------------
   0 C :    0.115743    0.050879
   1 H :    0.203004   -0.009455
   2 C :    0.333273   -0.145797
   3 F :   -0.428921    0.317361
   4 O :   -0.361058    0.501494
   5 H :    0.210142    0.003469
   6 F :   -0.422432   -0.003872
   7 H :    0.350249    0.285921
Sum of atomic charges       :   -0.0000000
Sum of atomic spin densities:    1.0000000

---------------------------------------------------
MULLIKEN REDUCED ORBITAL CHARGES AND SPIN DENSITIES
---------------------------------------------------
CHARGE
  0 C s       :     3.176280  s :     3.176280
      pz      :     1.012774  p :     2.613117
      px      :     0.577490
      py      :     1.022852
      dz2     :     0.015879  d :     0.094861
      dxz     :     0.022443
      dyz     :     0.013069
      dx2y2   :     0.025266
      dxy     :     0.018204
  1 H s       :     0.796996  s :     0.796996
  2 C s       :     3.157207  s :     3.157207
      pz      :     0.624819  p :     2.382657
      px      :     0.815914
      py      :     0.941924
      dz2     :     0.016325  d :     0.126863
      dxz     :     0.040750
      dyz     :     0.011888
      dx2y2   :     0.024221
      dxy     :     0.033679
  3 F s       :     3.995533  s :     3.995533
      pz      :     1.699290  p :     5.402944
      px      :     1.855590
      py      :     1.848064
      dz2     :     0.006143  d :     0.030444
      dxz     :     0.007621
      dyz     :     0.007674
      dx2y2   :     0.004845
      dxy     :     0.004162
  4 O s       :     3.869406  s :     3.869406
      pz      :     1.697052  p :     4.436804
      px      :     1.359668
      py      :     1.380085
      dz2     :     0.007469  d :     0.054847
      dxz     :     0.013902
      dyz     :     0.004741
      dx2y2   :     0.012846
      dxy     :     0.015889
  5 H s       :     0.789858  s :     0.789858
  6 F s       :     3.978399  s :     3.978399
      pz      :     1.947948  p :     5.407379
      px      :     1.522360
      py      :     1.937071
      dz2     :     0.006581  d :     0.036655
      dxz     :     0.007165
      dyz     :     0.003752
      dx2y2   :     0.011768
      dxy     :     0.007388
  7 H s       :     0.649751  s :     0.649751

SPIN
  0 C s       :     0.003440  s :     0.003440
      pz      :     0.023558  p :     0.047926
      px      :     0.009698
      py      :     0.014669
      dz2     :    -0.000367  d :    -0.000486
      dxz     :     0.000352
      dyz     :    -0.000160
      dx2y2   :    -0.000603
      dxy     :     0.000291
  1 H s       :    -0.009455  s :    -0.009455
  2 C s       :     0.002363  s :     0.002363
      pz      :    -0.081661  p :    -0.161066
      px      :     0.014845
      py      :    -0.094249
      dz2     :     0.001467  d :     0.012906
      dxz     :    -0.003015
      dyz     :     0.000526
      dx2y2   :     0.000263
      dxy     :     0.013665
  3 F s       :    -0.000993  s :    -0.000993
      pz      :     0.183604  p :     0.319834
      px      :     0.026547
      py      :     0.109683
      dz2     :    -0.000258  d :    -0.001480
      dxz     :    -0.000459
      dyz     :    -0.000891
      dx2y2   :     0.000096
      dxy     :     0.000032
  4 O s       :     0.023314  s :     0.023314
      pz      :     0.011533  p :     0.480550
      px      :     0.046748
      py      :     0.422269
      dz2     :    -0.000100  d :    -0.002371
      dxz     :    -0.000194
      dyz     :     0.000473
      dx2y2   :    -0.000015
      dxy     :    -0.002535
  5 H s       :     0.003469  s :     0.003469
  6 F s       :     0.000198  s :     0.000198
      pz      :     0.000261  p :    -0.004126
      px      :    -0.004218
      py      :    -0.000169
      dz2     :     0.000007  d :     0.000057
      dxz     :    -0.000006
      dyz     :    -0.000018
      dx2y2   :     0.000058
      dxy     :     0.000015
  7 H s       :     0.285921  s :     0.285921


                     *******************************
                     * LOEWDIN POPULATION ANALYSIS *
                     *******************************

-----------------------------------------
LOEWDIN ATOMIC CHARGES AND SPIN DENSITIES
-----------------------------------------
   0 C :   -0.027512    0.041437
   1 H :    0.147000   -0.006876
   2 C :    0.089573   -0.077591
   3 F :   -0.322087    0.342782
   4 O :   -0.123189    0.453253
   5 H :    0.151679    0.001330
   6 F :   -0.202276   -0.002943
   7 H :    0.286813    0.248608

--------------------------------------------------
LOEWDIN REDUCED ORBITAL CHARGES AND SPIN DENSITIES
--------------------------------------------------
CHARGE
  0 C s       :     2.942371  s :     2.942371
      pz      :     1.084490  p :     2.901006
      px      :     0.727035
      py      :     1.089481
      dz2     :     0.028673  d :     0.184135
      dxz     :     0.043531
      dyz     :     0.021924
      dx2y2   :     0.053220
      dxy     :     0.036788
  1 H s       :     0.853000  s :     0.853000
  2 C s       :     2.924626  s :     2.924626
      pz      :     0.749095  p :     2.721786
      px      :     0.990870
      py      :     0.981822
      dz2     :     0.033397  d :     0.264014
      dxz     :     0.088544
      dyz     :     0.022293
      dx2y2   :     0.053619
      dxy     :     0.066162
  3 F s       :     3.872854  s :     3.872854
      pz      :     1.699708  p :     5.408647
      px      :     1.858803
      py      :     1.850136
      dz2     :     0.008366  d :     0.040586
      dxz     :     0.010308
      dyz     :     0.011538
      dx2y2   :     0.005703
      dxy     :     0.004669
  4 O s       :     3.543351  s :     3.543351
      pz      :     1.654443  p :     4.494009
      px      :     1.470798
      py      :     1.368767
      dz2     :     0.012029  d :     0.085829
      dxz     :     0.017254
      dyz     :     0.005065
      dx2y2   :     0.026301
      dxy     :     0.025180
  5 H s       :     0.848321  s :     0.848321
  6 F s       :     3.753828  s :     3.753828
      pz      :     1.936542  p :     5.396459
      px      :     1.530725
      py      :     1.929193
      dz2     :     0.008208  d :     0.051989
      dxz     :     0.011422
      dyz     :     0.003969
      dx2y2   :     0.016630
      dxy     :     0.011760
  7 H s       :     0.713187  s :     0.713187

SPIN
  0 C s       :     0.006599  s :     0.006599
      pz      :     0.015615  p :     0.037107
      px      :     0.007211
      py      :     0.014281
      dz2     :    -0.000785  d :    -0.002269
      dxz     :     0.000071
      dyz     :    -0.000436
      dx2y2   :    -0.001191
      dxy     :     0.000072
  1 H s       :    -0.006876  s :    -0.006876
  2 C s       :    -0.006465  s :    -0.006465
      pz      :    -0.071361  p :    -0.106141
      px      :     0.007962
      py      :    -0.042743
      dz2     :     0.004026  d :     0.035015
      dxz     :    -0.003881
      dyz     :     0.001023
      dx2y2   :     0.001503
      dxy     :     0.032344
  3 F s       :     0.014060  s :     0.014060
      pz      :     0.185579  p :     0.327112
      px      :     0.022974
      py      :     0.118559
      dz2     :     0.000080  d :     0.001610
      dxz     :    -0.000575
      dyz     :     0.001789
      dx2y2   :     0.000329
      dxy     :    -0.000013
  4 O s       :     0.013162  s :     0.013162
      pz      :     0.007694  p :     0.444355
      px      :     0.038940
      py      :     0.397721
      dz2     :    -0.000329  d :    -0.004264
      dxz     :    -0.001639
      dyz     :     0.000495
      dx2y2   :    -0.000163
      dxy     :    -0.002629
  5 H s       :     0.001330  s :     0.001330
  6 F s       :    -0.000007  s :    -0.000007
      pz      :     0.000294  p :    -0.003335
      px      :    -0.003631
      py      :     0.000002
      dz2     :    -0.000001  d :     0.000398
      dxz     :     0.000073
      dyz     :     0.000052
      dx2y2   :     0.000182
      dxy     :     0.000093
  7 H s       :     0.248608  s :     0.248608


                      *****************************
                      * MAYER POPULATION ANALYSIS *
                      *****************************

  NA   - Mulliken gross atomic population
  ZA   - Total nuclear charge
  QA   - Mulliken gross atomic charge
  VA   - Mayer's total valence
  BVA  - Mayer's bonded valence
  FA   - Mayer's free valence

  ATOM       NA         ZA         QA         VA         BVA        FA
  0 C      5.8843     6.0000     0.1157     3.6159     3.3737     0.2422
  1 H      0.7970     1.0000     0.2030     0.9194     0.8828     0.0365
  2 C      5.6667     6.0000     0.3333     3.7514     3.3999     0.3516
  3 F      9.4289     9.0000    -0.4289     1.1368     0.6500     0.4869
  4 O      8.3611     8.0000    -0.3611     2.3235     1.7206     0.6029
  5 H      0.7899     1.0000     0.2101     0.9178     0.8819     0.0360
  6 F      9.4224     9.0000    -0.4224     1.0903     0.7747     0.3156
  7 H      0.6498     1.0000     0.3502     0.8548     0.7312     0.1235

  Mayer bond orders larger than 0.100000
B(  0-C ,  1-H ) :   0.8957 B(  0-C ,  2-C ) :   0.8402 B(  0-C ,  5-H ) :   0.8926 
B(  0-C ,  6-F ) :   0.7377 B(  2-C ,  3-F ) :   0.3789 B(  2-C ,  4-O ) :   1.6291 
B(  2-C ,  7-H ) :   0.5497 B(  3-F ,  7-H ) :   0.1770 


                *******************************************
                * RELAXED MP2 DENSITY POPULATION ANALYSIS *
                *******************************************

------------------------------------------------------------------------------
                           ORCA POPULATION ANALYSIS
------------------------------------------------------------------------------
Input electron density              ... input.pmp2re
Input spin density                  ... input.rmp2re
BaseName (.gbw .S,...)              ... input

                    ********************************
                    * MULLIKEN POPULATION ANALYSIS *
                    ********************************

------------------------------------------
MULLIKEN ATOMIC CHARGES AND SPIN DENSITIES
------------------------------------------
   0 C :    0.056964    0.027779
   1 H :    0.201255    0.000901
   2 C :    0.312845    0.357065
   3 F :   -0.415423    0.181956
   4 O :   -0.353117    0.153776
   5 H :    0.213851    0.019550
   6 F :   -0.351224   -0.003399
   7 H :    0.334848    0.262372
Sum of atomic charges       :   -0.0000000
Sum of atomic spin densities:    1.0000000

---------------------------------------------------
MULLIKEN REDUCED ORBITAL CHARGES AND SPIN DENSITIES
---------------------------------------------------
CHARGE
  0 C s       :     3.178293  s :     3.178293
      pz      :     1.028475  p :     2.676310
      px      :     0.614018
      py      :     1.033818
      dz2     :     0.014275  d :     0.088433
      dxz     :     0.021854
      dyz     :     0.011565
      dx2y2   :     0.022596
      dxy     :     0.018143
  1 H s       :     0.798745  s :     0.798745
  2 C s       :     3.180436  s :     3.180436
      pz      :     0.694111  p :     2.379358
      px      :     0.849896
      py      :     0.835351
      dz2     :     0.015607  d :     0.127361
      dxz     :     0.041176
      dyz     :     0.011441
      dx2y2   :     0.022830
      dxy     :     0.036307
  3 F s       :     3.990767  s :     3.990767
      pz      :     1.748486  p :     5.395019
      px      :     1.849500
      py      :     1.797033
      dz2     :     0.005993  d :     0.029637
      dxz     :     0.006920
      dyz     :     0.007619
      dx2y2   :     0.004982
      dxy     :     0.004123
  4 O s       :     3.839000  s :     3.839000
      pz      :     1.602119  p :     4.461322
      px      :     1.339141
      py      :     1.520062
      dz2     :     0.007210  d :     0.052795
      dxz     :     0.014608
      dyz     :     0.004740
      dx2y2   :     0.011908
      dxy     :     0.014329
  5 H s       :     0.786149  s :     0.786149
  6 F s       :     3.970489  s :     3.970489
      pz      :     1.935043  p :     5.344750
      px      :     1.487543
      py      :     1.922165
      dz2     :     0.006262  d :     0.035985
      dxz     :     0.007508
      dyz     :     0.003773
      dx2y2   :     0.010758
      dxy     :     0.007684
  7 H s       :     0.665152  s :     0.665152

SPIN
  0 C s       :    -0.007133  s :    -0.007133
      pz      :     0.013851  p :     0.033062
      px      :     0.008726
      py      :     0.010485
      dz2     :     0.000639  d :     0.001849
      dxz     :     0.000583
      dyz     :    -0.000136
      dx2y2   :     0.000340
      dxy     :     0.000423
  1 H s       :     0.000901  s :     0.000901
  2 C s       :     0.066568  s :     0.066568
      pz      :     0.070553  p :     0.277078
      px      :     0.049283
      py      :     0.157242
      dz2     :     0.001557  d :     0.013419
      dxz     :    -0.001197
      dyz     :    -0.000158
      dx2y2   :    -0.000520
      dxy     :     0.013737
  3 F s       :    -0.002579  s :    -0.002579
      pz      :     0.066846  p :     0.183920
      px      :    -0.027878
      py      :     0.144952
      dz2     :     0.000214  d :     0.000614
      dxz     :     0.000769
      dyz     :    -0.000527
      dx2y2   :     0.000070
      dxy     :     0.000088
  4 O s       :     0.005034  s :     0.005034
      pz      :    -0.051206  p :     0.147162
      px      :     0.023693
      py      :     0.174674
      dz2     :     0.000064  d :     0.001580
      dxz     :     0.000576
      dyz     :     0.000469
      dx2y2   :     0.000313
      dxy     :     0.000157
  5 H s       :     0.019550  s :     0.019550
  6 F s       :     0.000253  s :     0.000253
      pz      :     0.000072  p :    -0.003712
      px      :    -0.003261
      py      :    -0.000523
      dz2     :     0.000005  d :     0.000060
      dxz     :     0.000005
      dyz     :    -0.000013
      dx2y2   :     0.000062
      dxy     :     0.000001
  7 H s       :     0.262372  s :     0.262372


                     *******************************
                     * LOEWDIN POPULATION ANALYSIS *
                     *******************************

-----------------------------------------
LOEWDIN ATOMIC CHARGES AND SPIN DENSITIES
-----------------------------------------
   0 C :   -0.060504    0.047638
   1 H :    0.152942    0.000970
   2 C :    0.108685    0.300988
   3 F :   -0.326802    0.221000
   4 O :   -0.164719    0.172747
   5 H :    0.162588    0.014478
   6 F :   -0.167589   -0.003010
   7 H :    0.295399    0.245190

--------------------------------------------------
LOEWDIN REDUCED ORBITAL CHARGES AND SPIN DENSITIES
--------------------------------------------------
CHARGE
  0 C s       :     2.950350  s :     2.950350
      pz      :     1.092667  p :     2.933707
      px      :     0.748064
      py      :     1.092976
      dz2     :     0.026678  d :     0.176447
      dxz     :     0.043304
      dyz     :     0.020602
      dx2y2   :     0.048752
      dxy     :     0.037112
  1 H s       :     0.847058  s :     0.847058
  2 C s       :     2.942628  s :     2.942628
      pz      :     0.783012  p :     2.679324
      px      :     1.004158
      py      :     0.892154
      dz2     :     0.032577  d :     0.269363
      dxz     :     0.090064
      dyz     :     0.022455
      dx2y2   :     0.053016
      dxy     :     0.071250
  3 F s       :     3.872096  s :     3.872096
      pz      :     1.750334  p :     5.414286
      px      :     1.862505
      py      :     1.801448
      dz2     :     0.008357  d :     0.040420
      dxz     :     0.010329
      dyz     :     0.011117
      dx2y2   :     0.006023
      dxy     :     0.004594
  4 O s       :     3.541201  s :     3.541201
      pz      :     1.579001  p :     4.541267
      px      :     1.459802
      py      :     1.502465
      dz2     :     0.012047  d :     0.082250
      dxz     :     0.018008
      dyz     :     0.005097
      dx2y2   :     0.025628
      dxy     :     0.021470
  5 H s       :     0.837412  s :     0.837412
  6 F s       :     3.755816  s :     3.755816
      pz      :     1.928305  p :     5.358736
      px      :     1.510624
      py      :     1.919808
      dz2     :     0.008257  d :     0.053037
      dxz     :     0.011850
      dyz     :     0.003996
      dx2y2   :     0.016771
      dxy     :     0.012163
  7 H s       :     0.704601  s :     0.704601

SPIN
  0 C s       :     0.006602  s :     0.006602
      pz      :     0.013548  p :     0.038005
      px      :     0.008174
      py      :     0.016284
      dz2     :     0.001085  d :     0.003031
      dxz     :     0.000712
      dyz     :    -0.000125
      dx2y2   :     0.000897
      dxy     :     0.000461
  1 H s       :     0.000970  s :     0.000970
  2 C s       :     0.019320  s :     0.019320
      pz      :     0.058516  p :     0.251192
      px      :     0.035348
      py      :     0.157329
      dz2     :     0.002903  d :     0.030476
      dxz     :    -0.003081
      dyz     :     0.001077
      dx2y2   :    -0.001153
      dxy     :     0.030730
  3 F s       :     0.011763  s :     0.011763
      pz      :     0.075561  p :     0.204573
      px      :    -0.024404
      py      :     0.153416
      dz2     :     0.000555  d :     0.004664
      dxz     :     0.001244
      dyz     :     0.002218
      dx2y2   :     0.000518
      dxy     :     0.000129
  4 O s       :     0.003939  s :     0.003939
      pz      :    -0.045725  p :     0.160985
      px      :     0.028201
      py      :     0.178509
      dz2     :     0.000196  d :     0.007823
      dxz     :     0.001777
      dyz     :     0.000553
      dx2y2   :     0.001372
      dxy     :     0.003924
  5 H s       :     0.014478  s :     0.014478
  6 F s       :     0.000029  s :     0.000029
      pz      :    -0.000044  p :    -0.003433
      px      :    -0.002922
      py      :    -0.000468
      dz2     :     0.000013  d :     0.000393
      dxz     :     0.000063
      dyz     :     0.000067
      dx2y2   :     0.000170
      dxy     :     0.000079
  7 H s       :     0.245190  s :     0.245190


                      *****************************
                      * MAYER POPULATION ANALYSIS *
                      *****************************

  NA   - Mulliken gross atomic population
  ZA   - Total nuclear charge
  QA   - Mulliken gross atomic charge
  VA   - Mayer's total valence
  BVA  - Mayer's bonded valence
  FA   - Mayer's free valence

  ATOM       NA         ZA         QA         VA         BVA        FA
  0 C      5.9430     6.0000     0.0570     3.6979     3.4695     0.2285
  1 H      0.7987     1.0000     0.2013     0.9187     0.8843     0.0344
  2 C      5.6872     6.0000     0.3128     3.9122     3.7528     0.1595
  3 F      9.4154     9.0000    -0.4154     1.1732     0.8740     0.2992
  4 O      8.3531     8.0000    -0.3531     2.3863     2.1865     0.1998
  5 H      0.7861     1.0000     0.2139     0.9167     0.8849     0.0318
  6 F      9.3512     9.0000    -0.3512     1.1953     0.8855     0.3098
  7 H      0.6652     1.0000     0.3348     0.8655     0.7773     0.0881

  Mayer bond orders larger than 0.100000
B(  0-C ,  1-H ) :   0.8842 B(  0-C ,  2-C ) :   0.8382 B(  0-C ,  5-H ) :   0.8776 
B(  0-C ,  6-F ) :   0.8270 B(  2-C ,  3-F ) :   0.4274 B(  2-C ,  4-O ) :   1.9822 
B(  2-C ,  7-H ) :   0.4806 B(  3-F ,  4-O ) :   0.1360 B(  3-F ,  7-H ) :   0.2567 



----------------------------------
MP2 DERIVATIVE INTEGRAL GENERATION
----------------------------------


Input Wavefunction Amplitudes       ... input.mp2tbb.tmp
Input Correlated Electron Density   ... input.pmp2re
Input Energy Weighted Density       ... input.wmp2.tmp
Input SCF Electron Density          ... input.scfp

One-Electron Terms    ...
                        ... One-Electron Terms done
Prescreening matrices              ... done

Batch handling in the gradient evaluation:
Memory available                      ...  256.0 MB
Memory per occupied orbital in Q2     ...    1.8 MB
Memory per occupied orbital in Q3     ...    0.0 MB
Total memory requirement per |i>      ...    1.8 MB
Max. Number of orbitals possible      ...    140
Number of orbitals treated per batch  ...     41
Number of batches to be done          ...      1
Batch   0: i=    0 ...    40

---------------------------------------
MP2 TOTAL ENERGY:     -351.837792875 Eh
---------------------------------------

The final MP2 gradient
  0:  -0.00002154   0.00003591   0.00000481
  1:  -0.00001373  -0.00002277  -0.00000227
  2:   0.00003210  -0.00011339   0.00003733
  3:  -0.00002466  -0.00000812   0.00000161
  4:   0.00003736   0.00006193  -0.00000472
  5:   0.00001844  -0.00000009  -0.00001652
  6:  -0.00000218   0.00001098   0.00001272
  7:  -0.00002580   0.00003554  -0.00003296

-----------------------------------
NORM OF THE MP2 GRADIENT:  0.000166
-----------------------------------

Maximum memory used throughout the entire MP2-calculation: 152.6 MB

-------------------------   --------------------
FINAL SINGLE POINT ENERGY      -351.837792875275
-------------------------   --------------------

------------------------------------------------------------------------------
                         ORCA GEOMETRY RELAXATION STEP
------------------------------------------------------------------------------

Reading the OPT-File                    .... done
Getting information on internals        .... done
Copying old internal coords+grads       .... done
Making the new internal coordinates     .... (new redundants).... done
Validating the new internal coordinates .... (new redundants).... done
Calculating the B-matrix                .... done
Calculating the G,G- and P matrices     .... done
Transforming gradient to internals      .... done
Projecting the internal gradient        .... done
Number of atoms                         ....   8
Number of internal coordinates          ....  28
Current Energy                          ....  -351.837792875 Eh
Current gradient norm                   ....     0.000166173 Eh/bohr
Maximum allowed component of the step   ....  0.300
Current trust radius                    ....  0.300
Evaluating the initial hessian          ....  (Almloef) done
Projecting the Hessian                  .... done
Diagonalizing the Hessian               .... done
Dimension of the hessian                ....  28
Lowest eigenvalues of the Hessian:
  0.012238456  0.041992658  0.112438049  0.122822125  0.125201349
Hessian has   0 negative eigenvalues
Taking P-RFO step
Searching for lambda that maximizes along the lowest mode
TS mode is mode number   0 with eigenvalue   0.01223846 and components:
   1.    0.00000000
   2.    0.00000000
   3.    0.00000000
   4.   -0.00000000
   5.    0.00000000
   6.   -0.00000000
   7.    0.00000000
   8.   -0.00000000
   9.   -0.00000000
  10.   -0.00000000
  11.    0.00000000
  12.    0.00000000
  13.   -0.00000000
  14.   -0.00000000
  15.    0.00000000
  16.   -0.00000000
  17.   -0.00000000
  18.    0.00000000
  19.    0.00000000
  20.    0.33333333
  21.    0.33333333
  22.    0.33333333
  23.    0.33333333
  24.    0.33333333
  25.    0.33333333
  26.    0.33333333
  27.    0.33333333
  28.    0.33333333

Lambda that maximizes along the TS mode:       0.01223863
Searching for lambda that minimizes along all other modes
In cycle   1: lambdaN =  -0.00000004   step =   0.00000004
In cycle   2: lambdaN =  -0.00000004   step =   0.00000000
Lambda that minimizes along all other modes:  -0.00000004
Calculated stepsize too large (   0.9000 >    0.3000). Scaled with    0.3333.
The final length of the internal step   ....       0.3000
Converting the step to cartesian space:
 Initial RMS(Int)=    0.0566946710
Transforming coordinates:
 Iter   0:  RMS(Cart)=    0.0552910411 RMS(Int)=    0.0566580312
 Iter   1:  RMS(Cart)=    0.0014374936 RMS(Int)=    0.0012787782
 Iter   2:  RMS(Cart)=    0.0000734218 RMS(Int)=    0.0000744593
 Iter   3:  RMS(Cart)=    0.0000037835 RMS(Int)=    0.0000033852
 Iter   4:  RMS(Cart)=    0.0000001937 RMS(Int)=    0.0000001963
 Iter   5:  RMS(Cart)=    0.0000000100 RMS(Int)=    0.0000000089
done
Storing new coordinates                 .... done

                                .--------------------.
          ----------------------|Geometry convergence|-------------------------
          Item                value                   Tolerance       Converged
          ---------------------------------------------------------------------
          RMS gradient        0.0000226544            0.0000080000      NO
          MAX gradient        0.0000786933            0.0000300000      NO
          RMS step            0.0566946710            0.0001000000      NO
          MAX step            0.0999999924            0.0002000000      NO
          ........................................................
          Max(Bonds)      0.0000      Max(Angles)    0.01
          Max(Dihed)        5.73      Max(Improp)    0.00
          ---------------------------------------------------------------------

The optimization has not yet converged - more geometry cycles are needed


    ---------------------------------------------------------------------------
                         Redundant Internal Coordinates
[...]
AutoCI program output          ... >input.lastautoci

	<< Calculating on displaced geometry   1 (of  48) >>
	<< Calculating on displaced geometry   2 (of  48) >>
	<< Calculating on displaced geometry   3 (of  48) >>
	<< Calculating on displaced geometry   4 (of  48) >>
	<< Calculating on displaced geometry   5 (of  48) >>
	<< Calculating on displaced geometry   6 (of  48) >>
	<< Calculating on displaced geometry   7 (of  48) >>
	<< Calculating on displaced geometry   8 (of  48) >>
	<< Calculating on displaced geometry   9 (of  48) >>
	<< Calculating on displaced geometry  10 (of  48) >>
	<< Calculating on displaced geometry  11 (of  48) >>
	<< Calculating on displaced geometry  12 (of  48) >>
	<< Calculating on displaced geometry  13 (of  48) >>
	<< Calculating on displaced geometry  14 (of  48) >>
	<< Calculating on displaced geometry  15 (of  48) >>
	<< Calculating on displaced geometry  16 (of  48) >>
	<< Calculating on displaced geometry  17 (of  48) >>
	<< Calculating on displaced geometry  18 (of  48) >>
	<< Calculating on displaced geometry  19 (of  48) >>
	<< Calculating on displaced geometry  20 (of  48) >>
	<< Calculating on displaced geometry  21 (of  48) >>
	<< Calculating on displaced geometry  22 (of  48) >>
	<< Calculating on displaced geometry  23 (of  48) >>
	<< Calculating on displaced geometry  24 (of  48) >>
	<< Calculating on displaced geometry  25 (of  48) >>
	<< Calculating on displaced geometry  26 (of  48) >>
	<< Calculating on displaced geometry  27 (of  48) >>
	<< Calculating on displaced geometry  28 (of  48) >>
	<< Calculating on displaced geometry  29 (of  48) >>
	<< Calculating on displaced geometry  30 (of  48) >>
	<< Calculating on displaced geometry  31 (of  48) >>
	<< Calculating on displaced geometry  32 (of  48) >>
	<< Calculating on displaced geometry  33 (of  48) >>
	<< Calculating on displaced geometry  34 (of  48) >>
	<< Calculating on displaced geometry  35 (of  48) >>
	<< Calculating on displaced geometry  36 (of  48) >>
	<< Calculating on displaced geometry  37 (of  48) >>
	<< Calculating on displaced geometry  38 (of  48) >>
	<< Calculating on displaced geometry  39 (of  48) >>
	<< Calculating on displaced geometry  40 (of  48) >>
	<< Calculating on displaced geometry  41 (of  48) >>
	<< Calculating on displaced geometry  42 (of  48) >>
	<< Calculating on displaced geometry  43 (of  48) >>
	<< Calculating on displaced geometry  44 (of  48) >>
	<< Calculating on displaced geometry  45 (of  48) >>
	<< Calculating on displaced geometry  46 (of  48) >>
	<< Calculating on displaced geometry  47 (of  48) >>
	<< Calculating on displaced geometry  48 (of  48) >>

-----------------------
VIBRATIONAL FREQUENCIES
-----------------------

Scaling factor for frequencies =  1.000000000 (already applied!)

   0:         0.00 cm**-1
   1:         0.00 cm**-1
   2:         0.00 cm**-1
   3:         0.00 cm**-1
   4:         0.00 cm**-1
   5:         0.00 cm**-1
   6:      -630.26 cm**-1 ***imaginary mode***
   7:       123.45 cm**-1
   8:       236.49 cm**-1
   9:       428.82 cm**-1
  10:       460.13 cm**-1
  11:       583.46 cm**-1
  12:       875.90 cm**-1
  13:       968.52 cm**-1
  14:      1056.98 cm**-1
  15:      1136.15 cm**-1
  16:      1211.66 cm**-1
  17:      1293.85 cm**-1
  18:      1433.09 cm**-1
  19:      1547.17 cm**-1
  20:      1804.08 cm**-1
  21:      2270.70 cm**-1
  22:      3145.93 cm**-1
  23:      3224.00 cm**-1


------------
NORMAL MODES
------------

These modes are the cartesian displacements weighted by the diagonal matrix
M(i,i)=1/sqrt(m[i]) where m[i] is the mass of the displaced atom
Thus, these vectors are normalized but *not* orthogonal

                  0          1          2          3          4          5    
      0       0.000000   0.000000   0.000000   0.000000   0.000000   0.000000
      1       0.000000   0.000000   0.000000   0.000000   0.000000   0.000000
      2       0.000000   0.000000   0.000000   0.000000   0.000000   0.000000
      3       0.000000   0.000000   0.000000   0.000000   0.000000   0.000000
      4       0.000000   0.000000   0.000000   0.000000   0.000000   0.000000
      5       0.000000   0.000000   0.000000   0.000000   0.000000   0.000000
      6       0.000000   0.000000   0.000000   0.000000   0.000000   0.000000
      7       0.000000   0.000000   0.000000   0.000000   0.000000   0.000000
      8       0.000000   0.000000   0.000000   0.000000   0.000000   0.000000
      9       0.000000   0.000000   0.000000   0.000000   0.000000   0.000000
     10       0.000000   0.000000   0.000000   0.000000   0.000000   0.000000
     11       0.000000   0.000000   0.000000   0.000000   0.000000   0.000000
     12       0.000000   0.000000   0.000000   0.000000   0.000000   0.000000
     13       0.000000   0.000000   0.000000   0.000000   0.000000   0.000000
     14       0.000000   0.000000   0.000000   0.000000   0.000000   0.000000
     15       0.000000   0.000000   0.000000   0.000000   0.000000   0.000000
     16       0.000000   0.000000   0.000000   0.000000   0.000000   0.000000
     17       0.000000   0.000000   0.000000   0.000000   0.000000   0.000000
     18       0.000000   0.000000   0.000000   0.000000   0.000000   0.000000
     19       0.000000   0.000000   0.000000   0.000000   0.000000   0.000000
     20       0.000000   0.000000   0.000000   0.000000   0.000000   0.000000
     21       0.000000   0.000000   0.000000   0.000000   0.000000   0.000000
     22       0.000000   0.000000   0.000000   0.000000   0.000000   0.000000
     23       0.000000   0.000000   0.000000   0.000000   0.000000   0.000000
                  6          7          8          9         10         11    
      0       0.004215   0.028731  -0.029352  -0.052749   0.178576   0.115699
      1       0.019311  -0.183132  -0.167091  -0.144519  -0.090363  -0.015931
      2      -0.015280  -0.156281  -0.110878   0.200682   0.104155  -0.039590
      3      -0.026268  -0.218805   0.069265   0.043947   0.287800   0.138247
      4       0.082381  -0.568289  -0.521644   0.208643  -0.448156   0.396712
      5      -0.044945  -0.192724   0.001759   0.178308   0.222357  -0.108233
      6       0.060656   0.039784  -0.117318   0.028651  -0.127093  -0.299132
      7      -0.039758  -0.031172  -0.032198  -0.246324   0.066746  -0.244487
      8      -0.179771  -0.018337   0.104610   0.033468   0.207399  -0.235182
      9      -0.090496  -0.094431   0.183569  -0.033851  -0.278059   0.147095
     10      -0.010633  -0.070685  -0.188162   0.100713   0.034632   0.013208
     11       0.085888  -0.108141   0.347564  -0.086635   0.123020  -0.027792
     12       0.072130   0.067460  -0.052235   0.121882  -0.037274  -0.263618
     13      -0.005193   0.126975   0.170862   0.083937   0.113464   0.240096
     14      -0.005786   0.085522  -0.028768  -0.051320  -0.480478   0.075215
     15      -0.011586   0.350760   0.184176   0.002792   0.281102   0.200120
     16       0.014685  -0.139804  -0.134052  -0.296596  -0.019930  -0.205485
     17       0.012398  -0.509952  -0.357610   0.619794  -0.179185   0.473672
     18       0.004889  -0.017588  -0.061664  -0.070785   0.243064   0.185847
     19      -0.004146   0.142413   0.209757   0.097542  -0.082946  -0.058892
     20       0.002854   0.184061  -0.317021  -0.075389   0.078456   0.111499
     21      -0.266528   0.092171   0.025747   0.277979   0.068821  -0.243510
     22       0.507545  -0.105542  -0.088571  -0.323716  -0.140818  -0.037980
     23       0.775994  -0.004920   0.311496   0.280111   0.073366   0.137199
                 12         13         14         15         16         17    
      0      -0.015412   0.012484   0.024101  -0.355818   0.118390  -0.016143
      1       0.055324  -0.030355   0.265362  -0.009076   0.030630   0.024767
      2      -0.078044   0.226021   0.013599   0.089451   0.069306   0.020232
      3      -0.037261   0.039217  -0.135067  -0.516898  -0.016806  -0.657287
      4       0.152329  -0.529870  -0.404338  -0.332472  -0.216670   0.141823
      5      -0.110215   0.332880   0.067684   0.076269   0.061840  -0.271918
      6      -0.014730  -0.037542  -0.042494   0.047241   0.036873  -0.004774
      7       0.007225   0.124431  -0.275304  -0.053767  -0.003162   0.037552
      8      -0.019201  -0.085128   0.086331  -0.140885  -0.187535   0.065086
      9      -0.023297   0.061421   0.008476  -0.028141  -0.046753   0.010167
     10       0.003622  -0.025161   0.016525   0.031856   0.034780  -0.012751
     11       0.028028  -0.106728  -0.019884   0.068595   0.099794  -0.022774
     12      -0.017169  -0.077230   0.053372   0.018961  -0.002020  -0.004047
     13      -0.031805  -0.010641   0.034967  -0.001676   0.004773  -0.004114
     14       0.010390   0.020586  -0.003429   0.027508   0.017361  -0.006932
     15      -0.035004   0.108787   0.122827  -0.151032   0.600939   0.616803
     16       0.040604   0.141339   0.454896   0.036716  -0.094129  -0.143264
     17      -0.013368  -0.355181  -0.638512  -0.204015   0.087875   0.135508
     18       0.020069  -0.000848  -0.035754   0.237347  -0.096912   0.014373
     19      -0.002019  -0.006830  -0.039028   0.029101  -0.032827  -0.024085
     20       0.010911  -0.027216  -0.014098  -0.022950  -0.014880  -0.027742
     21       0.764764   0.234735  -0.101618   0.100943   0.305536  -0.108569
     22      -0.463623   0.039398  -0.062978  -0.077688  -0.129068   0.018446
     23       0.383522   0.541188   0.074985  -0.556288  -0.616892   0.181894
                 18         19         20         21         22         23    
      0      -0.127935  -0.066615   0.008299   0.023048  -0.032726   0.013507
      1       0.077631  -0.045155   0.011130  -0.020289  -0.049247  -0.060960
      2      -0.085874   0.030003   0.003474   0.019688   0.029508  -0.074342
      3       0.539544   0.363953   0.017521  -0.090800   0.248962  -0.291470
      4      -0.357847   0.614398  -0.049897   0.033441  -0.125430   0.130852
      5       0.289546   0.072436   0.016359   0.002484  -0.583987   0.689974
      6      -0.003866   0.002421   0.050011  -0.719949  -0.002005   0.001857
      7       0.016100  -0.005388   0.036626   0.177625  -0.000051  -0.001656
      8       0.025900  -0.000950  -0.043397  -0.114783  -0.000618  -0.001220
      9       0.009166  -0.001002  -0.003195   0.011893   0.000014  -0.000388
     10      -0.007179   0.002436   0.011846   0.009569   0.000250   0.000190
     11      -0.020938   0.003207   0.014131   0.008610   0.000251   0.000603
     12       0.017065   0.004617  -0.001249   0.514438   0.001113  -0.000987
     13      -0.010345  -0.000586   0.002322  -0.111473  -0.000121   0.000250
     14       0.002697   0.001011   0.002579   0.069412   0.000100   0.000042
     15       0.492868   0.413498  -0.031487  -0.059369   0.151621   0.128779
     16      -0.219794   0.052806   0.029470   0.005744   0.702869   0.599421
     17       0.394256  -0.548322  -0.006628  -0.014014   0.244508   0.191085
     18       0.007392  -0.001657  -0.001536   0.013137  -0.000407  -0.000046
     19      -0.014641  -0.003746  -0.000530  -0.002453   0.000164   0.000372
     20       0.013835   0.004188   0.000252   0.002706  -0.000222   0.000537
     21      -0.044845  -0.035709  -0.571866  -0.182721   0.003000   0.003463
     22       0.036212  -0.030950  -0.798751  -0.278763   0.004099   0.001281
     23       0.121896  -0.025712   0.153955  -0.170334  -0.006893  -0.002837


-----------
IR SPECTRUM
-----------

 Mode   freq       eps      Int      T**2         TX        TY        TZ
       cm**-1   L/(mol*cm) km/mol    a.u.
----------------------------------------------------------------------------
  7:    123.45   0.002128   10.75  0.005379  ( 0.012688 -0.057310 -0.043973)
  8:    236.49   0.000671    3.39  0.000886  (-0.015106 -0.025450  0.003141)
  9:    428.82   0.009195   46.47  0.006692  ( 0.007245 -0.064041  0.050376)
 10:    460.13   0.001392    7.03  0.000944  ( 0.021726 -0.015067  0.015644)
 11:    583.46   0.001716    8.67  0.000918  (-0.019846 -0.022120 -0.005909)
 12:    875.90   0.013664   69.05  0.004868  ( 0.056835 -0.024089 -0.032524)
 13:    968.52   0.029571  149.44  0.009528  (-0.025834  0.008790  0.093720)
 14:   1056.98   0.004097   20.70  0.001210  (-0.013390 -0.013661  0.029046)
 15:   1136.15   0.029898  151.09  0.008212  (-0.004676 -0.013645 -0.089464)
 16:   1211.66   0.154168  779.10  0.039706  ( 0.132067 -0.022636 -0.147485)
 17:   1293.85   0.021043  106.34  0.005075  (-0.039528  0.017498  0.056627)
 18:   1433.09   0.017812   90.02  0.003879  (-0.053661  0.015371  0.027622)
 19:   1547.17   0.001208    6.10  0.000244  (-0.007623  0.007875 -0.011114)
 20:   1804.08   0.002250   11.37  0.000389  (-0.017216 -0.001731  0.009475)
 21:   2270.70   0.310007  1566.65  0.042604  (-0.196592  0.038179  0.049984)
 22:   3145.93   0.001751    8.85  0.000174  (-0.012702 -0.002929  0.001953)
 23:   3224.00   0.001903    9.62  0.000184  ( 0.004655 -0.004908 -0.011765)

* The epsilon (eps) is given for a Dirac delta lineshape.
** The dipole moment derivative (T) already includes vibrational overlap.

The first frequency considered to be a vibration is 7
The total number of vibrations considered is 17


--------------------------
THERMOCHEMISTRY AT 298.15K
--------------------------

Temperature         ... 298.15 K
Pressure            ... 1.00 atm
Total Mass          ... 81.04 AMU

Throughout the following assumptions are being made:
  (1) The electronic state is orbitally nondegenerate
      but the spin degeneracy is treated
  (2) There are no thermally accessible electronically excited states
  (3) Hindered rotations indicated by low frequency modes are not
      treated as such but are treated as vibrations and this may
      cause some error
  (4) All equations used are the standard statistical mechanics
      equations for an ideal gas
  (5) All vibrations are strictly harmonic

freq.     123.45  E(vib)   ...       0.43 
freq.     236.49  E(vib)   ...       0.32 
freq.     428.82  E(vib)   ...       0.18 
freq.     460.13  E(vib)   ...       0.16 
freq.     583.46  E(vib)   ...       0.11 
freq.     875.90  E(vib)   ...       0.04 
freq.     968.52  E(vib)   ...       0.03 
freq.    1056.98  E(vib)   ...       0.02 
freq.    1136.15  E(vib)   ...       0.01 
freq.    1211.66  E(vib)   ...       0.01 
freq.    1293.85  E(vib)   ...       0.01 
freq.    1433.09  E(vib)   ...       0.00 
freq.    1547.17  E(vib)   ...       0.00 
freq.    1804.08  E(vib)   ...       0.00 
freq.    2270.70  E(vib)   ...       0.00 
freq.    3145.93  E(vib)   ...       0.00 
freq.    3224.00  E(vib)   ...       0.00 

------------
INNER ENERGY
------------

The inner energy is: U= E(el) + E(ZPE) + E(vib) + E(rot) + E(trans)
    E(el)   - is the total energy from the electronic structure calculation
              = E(kin-el) + E(nuc-el) + E(el-el) + E(nuc-nuc)
    E(ZPE)  - the the zero temperature vibrational energy from the frequency calculation
    E(vib)  - the the finite temperature correction to E(ZPE) due to population
              of excited vibrational states
    E(rot)  - is the rotational thermal energy
    E(trans)- is the translational thermal energy

Summary of contributions to the inner energy U:
Electronic energy                ...   -351.83779331 Eh
Zero point energy                ...      0.04966493 Eh      31.17 kcal/mol
Thermal vibrational correction   ...      0.00209492 Eh       1.31 kcal/mol
Thermal rotational correction    ...      0.00141627 Eh       0.89 kcal/mol
Thermal translational correction ...      0.00141627 Eh       0.89 kcal/mol
-----------------------------------------------------------------------
Total thermal energy                   -351.78320092 Eh


Summary of corrections to the electronic energy:
(perhaps to be used in another calculation)
Total thermal correction                  0.00492746 Eh       3.09 kcal/mol
Non-thermal (ZPE) correction              0.04966493 Eh      31.17 kcal/mol
-----------------------------------------------------------------------
Total correction                          0.05459239 Eh      34.26 kcal/mol


--------
ENTHALPY
--------

The enthalpy is H = U + kB*T
                kB is Boltzmann's constant
Total free energy                 ...   -351.78320092 Eh 
Thermal Enthalpy correction       ...      0.00094421 Eh       0.59 kcal/mol
-----------------------------------------------------------------------
Total Enthalpy                    ...   -351.78225671 Eh


Note: Only C1 symmetry has been detected, increase convergence thresholds 
      if your molecule has a higher symmetry. Symmetry factor of 1.0 is   
      used for the rotational entropy correction. 
 

Note: Rotational entropy computed according to Herzberg 
Infrared and Raman Spectra, Chapter V,1, Van Nostrand Reinhold, 1945 
Point Group:  C1, Symmetry Number:   1  
Rotational constants in cm-1:     0.264613     0.133554     0.094621 

Vibrational entropy computed according to the QRRHO of S. Grimme
Chem.Eur.J. 2012 18 9955


-------
ENTROPY
-------

The entropy contributions are T*S = T*(S(el)+S(vib)+S(rot)+S(trans))
     S(el)   - electronic entropy
     S(vib)  - vibrational entropy
     S(rot)  - rotational entropy
     S(trans)- translational entropy
The entropies will be listed as multiplied by the temperature to get
units of energy

Electronic entropy                ...      0.00065446 Eh      0.41 kcal/mol
Vibrational entropy               ...      0.00349459 Eh      2.19 kcal/mol
Rotational entropy                ...      0.01220201 Eh      7.66 kcal/mol
Translational entropy             ...      0.01857352 Eh     11.66 kcal/mol
-----------------------------------------------------------------------
Final entropy term                ...      0.03492459 Eh     21.92 kcal/mol

In case the symmetry of your molecule has not been determined correctly
or in case you have a reason to use a different symmetry number we print 
out the resulting rotational entropy values for sn=1,12 :
 --------------------------------------------------------
|  sn= 1 | S(rot)=       0.01220201 Eh      7.66 kcal/mol|
|  sn= 2 | S(rot)=       0.01154756 Eh      7.25 kcal/mol|
|  sn= 3 | S(rot)=       0.01116473 Eh      7.01 kcal/mol|
|  sn= 4 | S(rot)=       0.01089310 Eh      6.84 kcal/mol|
|  sn= 5 | S(rot)=       0.01068241 Eh      6.70 kcal/mol|
|  sn= 6 | S(rot)=       0.01051027 Eh      6.60 kcal/mol|
|  sn= 7 | S(rot)=       0.01036472 Eh      6.50 kcal/mol|
|  sn= 8 | S(rot)=       0.01023865 Eh      6.42 kcal/mol|
|  sn= 9 | S(rot)=       0.01012744 Eh      6.36 kcal/mol|
|  sn=10 | S(rot)=       0.01002796 Eh      6.29 kcal/mol|
|  sn=11 | S(rot)=       0.00993797 Eh      6.24 kcal/mol|
|  sn=12 | S(rot)=       0.00985581 Eh      6.18 kcal/mol|
 --------------------------------------------------------


-------------------
GIBBS FREE ENERGY
-------------------

The Gibbs free energy is G = H - T*S

Total enthalpy                    ...   -351.78225671 Eh 
Total entropy correction          ...     -0.03492459 Eh    -21.92 kcal/mol
-----------------------------------------------------------------------
Final Gibbs free energy         ...   -351.81718130 Eh

For completeness - the Gibbs free energy minus the electronic energy
G-E(el)                           ...      0.02061201 Eh     12.93 kcal/mol



Timings for individual modules:

Sum of individual times         ...     1891.367 sec (=  31.523 min)
GTO integral calculation        ...        6.200 sec (=   0.103 min)   0.3 %
SCF iterations                  ...      197.282 sec (=   3.288 min)  10.4 %
MP2 module                      ...      339.827 sec (=   5.664 min)  18.0 %
Geometry relaxation             ...        0.621 sec (=   0.010 min)   0.0 %
Numerical frequency calculation ...     1347.438 sec (=  22.457 min)  71.2 %
                             ****ORCA TERMINATED NORMALLY****
TOTAL RUN TIME: 0 days 0 hours 31 minutes 18 seconds 556 msec
