
                                 *****************
                                 * O   R   C   A *
                                 *****************

                                            #,                                       
                                            ###                                      
                                            ####                                     
                                            #####                                    
                                            ######                                   
                                           ########,                                 
                                     ,,################,,,,,                         
                               ,,#################################,,                 
                          ,,##########################################,,             
                       ,#########################################, ''#####,          
                    ,#############################################,,   '####,        
                  ,##################################################,,,,####,       
                ,###########''''           ''''###############################       
              ,#####''   ,,,,##########,,,,          '''####'''          '####       
            ,##' ,,,,###########################,,,                        '##       
           ' ,,###''''                  '''############,,,                           
         ,,##''                                '''############,,,,        ,,,,,,###''
      ,#''                                            '''#######################'''  
     '                                                          ''''####''''         
             ,#######,   #######,   ,#######,      ##                                
            ,#'     '#,  ##    ##  ,#'     '#,    #''#        ######   ,####,        
            ##       ##  ##   ,#'  ##            #'  '#       #        #'  '#        
            ##       ##  #######   ##           ,######,      #####,   #    #        
            '#,     ,#'  ##    ##  '#,     ,#' ,#      #,         ##   #,  ,#        
             '#######'   ##     ##  '#######'  #'      '#     #####' # '####'        



                  #######################################################
                  #                        -***-                        #
                  #          Department of theory and spectroscopy      #
                  #    Directorship and core code : Frank Neese         #
                  #        Max Planck Institute fuer Kohlenforschung    #
                  #                Kaiser Wilhelm Platz 1               #
                  #                 D-45470 Muelheim/Ruhr               #
                  #                      Germany                        #
                  #                                                     #
                  #                  All rights reserved                #
                  #                        -***-                        #
                  #######################################################


                         Program Version 5.0.1 -  RELEASE  -


 With contributions from (in alphabetic order):
   Daniel Aravena         : Magnetic Suceptibility
   Michael Atanasov       : Ab Initio Ligand Field Theory (pilot matlab implementation)
   Alexander A. Auer      : GIAO ZORA, VPT2 properties, NMR spectrum
   Ute Becker             : Parallelization
   Giovanni Bistoni       : ED, misc. LED, open-shell LED, HFLD
   Martin Brehm           : Molecular dynamics
   Dmytro Bykov           : SCF Hessian
   Vijay G. Chilkuri      : MRCI spin determinant printing, contributions to CSF-ICE
   Dipayan Datta          : RHF DLPNO-CCSD density
   Achintya Kumar Dutta   : EOM-CC, STEOM-CC
   Dmitry Ganyushin       : Spin-Orbit,Spin-Spin,Magnetic field MRCI
   Miquel Garcia          : C-PCM and meta-GGA Hessian, CC/C-PCM, Gaussian charge scheme
   Yang Guo               : DLPNO-NEVPT2, F12-NEVPT2, CIM, IAO-localization
   Andreas Hansen         : Spin unrestricted coupled pair/coupled cluster methods
   Benjamin Helmich-Paris : MC-RPA, TRAH-SCF, COSX integrals
   Lee Huntington         : MR-EOM, pCC
   Robert Izsak           : Overlap fitted RIJCOSX, COSX-SCS-MP3, EOM
   Marcus Kettner         : VPT2
   Christian Kollmar      : KDIIS, OOCD, Brueckner-CCSD(T), CCSD density, CASPT2, CASPT2-K
   Simone Kossmann        : Meta GGA functionals, TD-DFT gradient, OOMP2, MP2 Hessian
   Martin Krupicka        : Initial AUTO-CI
   Lucas Lang             : DCDCAS
   Marvin Lechner         : AUTO-CI (C++ implementation), FIC-MRCC
   Dagmar Lenk            : GEPOL surface, SMD
   Dimitrios Liakos       : Extrapolation schemes; Compound Job, initial MDCI parallelization
   Dimitrios Manganas     : Further ROCIS development; embedding schemes
   Dimitrios Pantazis     : SARC Basis sets
   Anastasios Papadopoulos: AUTO-CI, single reference methods and gradients
   Taras Petrenko         : DFT Hessian,TD-DFT gradient, ASA, ECA, R-Raman, ABS, FL, XAS/XES, NRVS
   Peter Pinski           : DLPNO-MP2, DLPNO-MP2 Gradient
   Christoph Reimann      : Effective Core Potentials
   Marius Retegan         : Local ZFS, SOC
   Christoph Riplinger    : Optimizer, TS searches, QM/MM, DLPNO-CCSD(T), (RO)-DLPNO pert. Triples
   Tobias Risthaus        : Range-separated hybrids, TD-DFT gradient, RPA, STAB
   Michael Roemelt        : Original ROCIS implementation
   Masaaki Saitow         : Open-shell DLPNO-CCSD energy and density
   Barbara Sandhoefer     : DKH picture change effects
   Avijit Sen             : IP-ROCIS
   Kantharuban Sivalingam : CASSCF convergence, NEVPT2, FIC-MRCI
   Bernardo de Souza      : ESD, SOC TD-DFT
   Georgi Stoychev        : AutoAux, RI-MP2 NMR, DLPNO-MP2 response
   Willem Van den Heuvel  : Paramagnetic NMR
   Boris Wezisla          : Elementary symmetry handling
   Frank Wennmohs         : Technical directorship


 We gratefully acknowledge several colleagues who have allowed us to
 interface, adapt or use parts of their codes:
   Stefan Grimme, W. Hujo, H. Kruse, P. Pracht,  : VdW corrections, initial TS optimization,
                  C. Bannwarth, S. Ehlert          DFT functionals, gCP, sTDA/sTD-DF
   Ed Valeev, F. Pavosevic, A. Kumar             : LibInt (2-el integral package), F12 methods
   Garnet Chan, S. Sharma, J. Yang, R. Olivares  : DMRG
   Ulf Ekstrom                                   : XCFun DFT Library
   Mihaly Kallay                                 : mrcc  (arbitrary order and MRCC methods)
   Jiri Pittner, Ondrej Demel                    : Mk-CCSD
   Frank Weinhold                                : gennbo (NPA and NBO analysis)
   Christopher J. Cramer and Donald G. Truhlar   : smd solvation model
   Lars Goerigk                                  : TD-DFT with DH, B97 family of functionals
   V. Asgeirsson, H. Jonsson                     : NEB implementation
   FAccTs GmbH                                   : IRC, NEB, NEB-TS, DLPNO-Multilevel, CI-OPT
                                                   MM, QMMM, 2- and 3-layer-ONIOM, Crystal-QMMM,
                                                   LR-CPCM, SF, NACMEs, symmetry and pop. for TD-DFT,
                                                   nearIR, NL-DFT gradient (VV10), updates on ESD,
                                                   ML-optimized integration grids
   S Lehtola, MJT Oliveira, MAL Marques          : LibXC Library
   Liviu Ungur et al                             : ANISO software


 Your calculation uses the libint2 library for the computation of 2-el integrals
 For citations please refer to: http://libint.valeyev.net

 Your ORCA version has been built with support for libXC version: 5.1.0
 For citations please refer to: https://tddft.org/programs/libxc/

 This ORCA versions uses:
   CBLAS   interface :  Fast vector & matrix operations
   LAPACKE interface :  Fast linear algebra routines
   SCALAPACK package :  Parallel linear algebra routines
   Shared memory     :  Shared parallel matrices
   BLAS/LAPACK       :  OpenBLAS 0.3.15  USE64BITINT DYNAMIC_ARCH NO_AFFINITY Zen SINGLE_THREADED
        Core in use  :  Zen
   Copyright (c) 2011-2014, The OpenBLAS Project




***************************************
The coordinates will be read from file: input.xyz
***************************************


================================================================================

----- Orbital basis set information -----
Your calculation utilizes the basis: 6-31G(d)
   H-He, Li-Ne : W. J. Hehre, R. Ditchfield and J.A. Pople, J. Chem. Phys. 56, 2257 (1972).
                 Note: He and Ne are unpublished basis sets taken from the Gaussian program.
                 Note: Li and B from J. D. Dill and J. A. Pople, J. Chem. Phys. 62, 2921 (1975).
   Na - Ar     : M. M. Francl, W. J. Pietro, W. J. Hehre, J. S. Binkley, M. S. Gordon, 
                 D. J. DeFrees and J. A. Pople, J. Chem. Phys. 77, 3654 (1982).
   K - Zn      : V. A. Rassolov, J. A. Pople, M. A. Ratner, and T. L. Windus, J. Chem. Phys. 109, 1223 (1998).

================================================================================
                                        WARNINGS
                       Please study these warnings very carefully!
================================================================================


WARNING: Geometry Optimization
  ===> : Switching off AutoStart
         For restart on a previous wavefunction, please use MOREAD

WARNING: Post HF methods need fully converged wavefunctions
  ===> : Setting SCFConvForced true
         You can overwrite this default with %scf ConvForced false 


INFO   : the flag for use of the SHARK integral package has been found!

================================================================================
                                       INPUT FILE
================================================================================
NAME = input.orc
|  1> ! MP2 UHF 6-31G(d) OPTTS NumFreq NoFrozenCore VERYTIGHTSCF VERYTIGHTOPT
|  2> 
|  3> * XYZfile 0 2 input.xyz
|  4> 
|  5>                          ****END OF INPUT****
================================================================================

                       *****************************
                       * Geometry Optimization Run *
                       *****************************

Geometry optimization settings:
Update method            Update   .... Bofill
Choice of coordinates    CoordSys .... Z-matrix Internals
Initial Hessian          InHess   .... Almoef's Model

Convergence Tolerances:
Energy Change            TolE     ....  2.0000e-07 Eh
Max. Gradient            TolMAXG  ....  3.0000e-05 Eh/bohr
RMS Gradient             TolRMSG  ....  8.0000e-06 Eh/bohr
Max. Displacement        TolMAXD  ....  2.0000e-04 bohr
RMS Displacement         TolRMSD  ....  1.0000e-04 bohr
Strict Convergence                ....  False
------------------------------------------------------------------------------
                        ORCA OPTIMIZATION COORDINATE SETUP
------------------------------------------------------------------------------

The optimization will be done in new redundant internal coordinates
Making redundant internal coordinates   ...  (new redundants) done
Following TS mode number                ...     0
Evaluating the initial hessian          ...  (Almloef) done
Evaluating the coordinates              ...  done
Calculating the B-matrix                .... done
Calculating the G-matrix                .... done
Diagonalizing the G-matrix              .... done
The first mode is                       ....   10
The number of degrees of freedom        ....   18

    -----------------------------------------------------------------
                    Redundant Internal Coordinates


    -----------------------------------------------------------------
         Definition                    Initial Value    Approx d2E/dq
    -----------------------------------------------------------------
      1. B(C   1,C   0)                  1.5137         0.396645   
      2. B(F   2,C   1)                  1.6441         0.204411   
      3. B(O   3,C   1)                  1.1838         1.193715   
      4. B(H   4,C   0)                  1.0888         0.361707   
      5. B(H   5,C   0)                  1.0895         0.360773   
      6. B(H   6,C   0)                  1.0907         0.359141   
      7. B(H   7,C   1)                  1.2568         0.195136   
      8. A(C   1,C   0,H   5)          107.7710         0.327633   
      9. A(H   4,C   0,H   6)          109.0808         0.290921   
     10. A(C   1,C   0,H   4)          108.7734         0.327773   
     11. A(H   4,C   0,H   5)          111.1174         0.291128   
     12. A(H   5,C   0,H   6)          109.7177         0.290803   
     13. A(C   1,C   0,H   6)          110.3692         0.327388   
     14. A(O   3,C   1,H   7)          113.8692         0.353262   
     15. A(F   2,C   1,O   3)          118.5072         0.393522   
     16. A(F   2,C   1,H   7)           60.7895         0.265254   
     17. A(C   0,C   1,H   7)          109.7160         0.296645   
     18. A(C   0,C   1,O   3)          129.2567         0.447758   
     19. A(C   0,C   1,F   2)          104.6306         0.328279   
     20. D(F   2,C   1,C   0,H   5)   -142.6349         0.012490   
     21. D(F   2,C   1,C   0,H   6)     97.5685         0.012490   
     22. D(O   3,C   1,C   0,H   4)    126.1830         0.012490   
     23. D(O   3,C   1,C   0,H   5)      5.6167         0.012490   
     24. D(O   3,C   1,C   0,H   6)   -114.1799         0.012490   
     25. D(H   7,C   1,C   0,H   4)    -85.8222         0.012490   
     26. D(H   7,C   1,C   0,H   5)    153.6115         0.012490   
     27. D(H   7,C   1,C   0,H   6)     33.8149         0.012490   
     28. D(F   2,C   1,C   0,H   4)    -22.0686         0.012490   
    -----------------------------------------------------------------

Number of atoms                         .... 8
Number of degrees of freedom            .... 28

         *************************************************************
         *                GEOMETRY OPTIMIZATION CYCLE   1            *
         *************************************************************
---------------------------------
CARTESIAN COORDINATES (ANGSTROEM)
---------------------------------
  C      0.848026   -0.106272   -0.168931
  C      0.219436    0.267136    1.156471
  F      0.690860    1.820600    1.416671
  O     -0.800060   -0.101121    1.632211
  H      1.064663    0.805471   -0.723235
  H      0.139388   -0.734278   -0.707850
  H      1.776961   -0.654625   -0.007463
  H      1.119628    0.501540    2.001577

----------------------------
CARTESIAN COORDINATES (A.U.)
----------------------------
  NO LB      ZA    FRAG     MASS         X           Y           Z
   0 C     6.0000    0    12.011    1.602537   -0.200826   -0.319234
   1 C     6.0000    0    12.011    0.414673    0.504814    2.185414
   2 F     9.0000    0    18.998    1.305536    3.440435    2.677121
   3 O     8.0000    0    15.999   -1.511895   -0.191092    3.084432
   4 H     1.0000    0     1.008    2.011921    1.522119   -1.366715
   5 H     1.0000    0     1.008    0.263405   -1.387585   -1.337643
   6 H     1.0000    0     1.008    3.357969   -1.237063   -0.014102
   7 H     1.0000    0     1.008    2.115791    0.947773    3.782432

--------------------------------
INTERNAL COORDINATES (ANGSTROEM)
--------------------------------
 C      0   0   0     0.000000000000     0.00000000     0.00000000
 C      1   0   0     1.513688401222     0.00000000     0.00000000
 F      2   1   0     1.644139464019   104.63056981     0.00000000
 O      2   1   3     1.183770998259   129.25670358   148.25166162
 H      1   2   3     1.088787886548   108.77343614   337.93135377
 H      1   2   3     1.089491998886   107.77103335   217.36507977
 H      1   2   3     1.090725873386   110.36923207    97.56845536
 H      2   1   3     1.256779826903   109.71598085   296.24642632

---------------------------
INTERNAL COORDINATES (A.U.)
---------------------------
 C      0   0   0     0.000000000000     0.00000000     0.00000000
 C      1   0   0     2.860456530402     0.00000000     0.00000000
 F      2   1   0     3.106973312969   104.63056981     0.00000000
 O      2   1   3     2.237002991988   129.25670358   148.25166162
 H      1   2   3     2.057510923506   108.77343614   337.93135377
 H      1   2   3     2.058841502993   107.77103335   217.36507977
 H      1   2   3     2.061173187882   110.36923207    97.56845536
 H      2   1   3     2.374969683484   109.71598085   296.24642632

---------------------
BASIS SET INFORMATION
---------------------
There are 4 groups of distinct atoms

 Group   1 Type C   : 10s4p1d contracted to 3s2p1d pattern {631/31/1}
 Group   2 Type F   : 10s4p1d contracted to 3s2p1d pattern {631/31/1}
 Group   3 Type O   : 10s4p1d contracted to 3s2p1d pattern {631/31/1}
 Group   4 Type H   : 4s contracted to 2s pattern {31}

Atom   0C    basis set group =>   1
Atom   1C    basis set group =>   1
Atom   2F    basis set group =>   2
Atom   3O    basis set group =>   3
Atom   4H    basis set group =>   4
Atom   5H    basis set group =>   4
Atom   6H    basis set group =>   4
Atom   7H    basis set group =>   4
------------------------------------------------------------------------------
                           ORCA GTO INTEGRAL CALCULATION
------------------------------------------------------------------------------
------------------------------------------------------------------------------
                   ___                                                        
                  /   \      - P O W E R E D   B Y -                         
                 /     \                                                     
                 |  |  |   _    _      __       _____    __    __             
                 |  |  |  | |  | |    /  \     |  _  \  |  |  /  |          
                  \  \/   | |  | |   /    \    | | | |  |  | /  /          
                 / \  \   | |__| |  /  /\  \   | |_| |  |  |/  /          
                |  |  |   |  __  | /  /__\  \  |    /   |      \           
                |  |  |   | |  | | |   __   |  |    \   |  |\   \          
                \     /   | |  | | |  |  |  |  | |\  \  |  | \   \       
                 \___/    |_|  |_| |__|  |__|  |_| \__\ |__|  \__/        
                                                                              
                      - O R C A' S   B I G   F R I E N D -                    
                                      &                                       
                       - I N T E G R A L  F E E D E R -                       
                                                                              
 v1 FN, 2020, v2 2021                                                         
------------------------------------------------------------------------------


Reading SHARK input file input.SHARKINP.tmp ... ok
----------------------
SHARK INTEGRAL PACKAGE
----------------------

Number of atoms                             ...      8
Number of basis functions                   ...     64
Number of shells                            ...     32
Maximum angular momentum                    ...      2
Integral batch strategy                     ... SHARK/LIBINT Hybrid
RI-J (if used) integral strategy            ... SPLIT-RIJ (Revised 2003 algorithm where possible)
Printlevel                                  ...      1
Contraction scheme used                     ... SEGMENTED contraction
Coulomb Range Separation                    ... NOT USED
Exchange Range Separation                   ... NOT USED
Finite Nucleus Model                        ... NOT USED
Auxiliary Coulomb fitting basis             ... NOT available
Auxiliary J/K fitting basis                 ... NOT available
Auxiliary Correlation fitting basis         ... NOT available
Auxiliary 'external' fitting basis          ... NOT available
Integral threshold                          ...     1.000000e-12
Primitive cut-off                           ...     1.000000e-14
Primitive pair pre-selection threshold      ...     1.000000e-14

Calculating pre-screening integrals         ... done (  0.0 sec) Dimension = 32
Organizing shell pair data                  ... done (  0.0 sec)
Shell pair information
Total number of shell pairs                 ...       528
Shell pairs after pre-screening             ...       525
Total number of primitive shell pairs       ...      3022
Primitive shell pairs kept                  ...      2346
          la=0 lb=0:    207 shell pairs
          la=1 lb=0:    160 shell pairs
          la=1 lb=1:     36 shell pairs
          la=2 lb=0:     80 shell pairs
          la=2 lb=1:     32 shell pairs
          la=2 lb=2:     10 shell pairs

Calculating one electron integrals          ... done (  0.0 sec)
Calculating Nuclear repulsion               ... done (  0.0 sec) ENN=    121.995430305321 Eh

SHARK setup successfully completed in   0.2 seconds

Maximum memory used throughout the entire GTOINT-calculation: 7.5 MB
-------------------------------------------------------------------------------
                                 ORCA SCF
-------------------------------------------------------------------------------

------------
SCF SETTINGS
------------
Hamiltonian:
 Ab initio Hamiltonian  Method          .... Hartree-Fock(GTOs)


General Settings:
 Integral files         IntName         .... input
 Hartree-Fock type      HFTyp           .... UHF
 Total Charge           Charge          ....    0
 Multiplicity           Mult            ....    2
 Number of Electrons    NEL             ....   33
 Basis Dimension        Dim             ....   64
 Nuclear Repulsion      ENuc            ....    121.9954303053 Eh

Convergence Acceleration:
 DIIS                   CNVDIIS         .... on
   Start iteration      DIISMaxIt       ....    12
   Startup error        DIISStart       ....  0.200000
   # of expansion vecs  DIISMaxEq       ....     5
   Bias factor          DIISBfac        ....   1.050
   Max. coefficient     DIISMaxC        ....  10.000
 Trust-Rad. Augm. Hess. CNVTRAH         .... auto
   Auto Start mean grad. ratio tolernc. ....  1.125000
   Auto Start start iteration           ....    20
   Auto Start num. interpolation iter.  ....    10
   Max. Number of Micro iterations      ....    16
   Max. Number of Macro iterations      .... Maxiter - #DIIS iter
   Number of Davidson start vectors     ....     2
   Converg. threshold I  (grad. norm)   ....   2.000e-06
   Converg. threshold II (energy diff.) ....   1.000e-09
   Grad. Scal. Fac. for Micro threshold ....   0.100
   Minimum threshold for Micro iter.    ....   0.010
   NR start threshold (gradient norm)   ....   0.001
   Initial trust radius                 ....   0.400
   Minimum AH scaling param. (alpha)    ....   1.000
   Maximum AH scaling param. (alpha)    .... 1000.000
   Orbital update algorithm             .... Taylor
   White noise on init. David. guess    .... on
   Maximum white noise                  ....   0.010
   Quad. conv. algorithm                .... NR
 SOSCF                  CNVSOSCF        .... off
 Level Shifting         CNVShift        .... on
   Level shift para.    LevelShift      ....    0.2500
   Turn off err/grad.   ShiftErr        ....    0.0010
 Zerner damping         CNVZerner       .... off
 Static damping         CNVDamp         .... on
   Fraction old density DampFac         ....    0.7000
   Max. Damping (<1)    DampMax         ....    0.9800
   Min. Damping (>=0)   DampMin         ....    0.0000
   Turn off err/grad.   DampErr         ....    0.1000
 Fernandez-Rico         CNVRico         .... off

SCF Procedure:
 Maximum # iterations   MaxIter         ....   125
 SCF integral mode      SCFMode         .... Direct
   Integral package                     .... SHARK and LIBINT hybrid scheme
 Reset frequency        DirectResetFreq ....    20
 Integral Threshold     Thresh          ....  1.000e-12 Eh
 Primitive CutOff       TCut            ....  1.000e-14 Eh

Convergence Tolerance:
 Convergence Check Mode ConvCheckMode   .... Total+1el-Energy
 Convergence forced     ConvForced      .... 1
 Energy Change          TolE            ....  1.000e-09 Eh
 1-El. energy change                    ....  1.000e-06 Eh
 DIIS Error             TolErr          ....  1.000e-08


Diagonalization of the overlap matrix:
Smallest eigenvalue                        ... 6.774e-03
Time for diagonalization                   ...    0.001 sec
Threshold for overlap eigenvalues          ... 1.000e-08
Number of eigenvalues below threshold      ... 0
Time for construction of square roots      ...    0.048 sec
Total time needed                          ...    0.049 sec

Time for model grid setup =    0.082 sec

------------------------------
INITIAL GUESS: MODEL POTENTIAL
------------------------------
Loading Hartree-Fock densities                     ... done
Calculating cut-offs                               ... done
Initializing the effective Hamiltonian             ... done
Setting up the integral package (SHARK)            ... done
Starting the Coulomb interaction                   ... done (   0.1 sec)
Reading the grid                                   ... done
Mapping shells                                     ... done
Starting the XC term evaluation                    ... done (   0.0 sec)
Transforming the Hamiltonian                       ... done (   0.0 sec)
Diagonalizing the Hamiltonian                      ... done (   0.0 sec)
Back transforming the eigenvectors                 ... done (   0.0 sec)
Now organizing SCF variables                       ... done
                      ------------------
                      INITIAL GUESS DONE (   0.2 sec)
                      ------------------
--------------
SCF ITERATIONS
--------------
ITER       Energy         Delta-E        Max-DP      RMS-DP      [F,P]     Damp
               ***  Starting incremental Fock matrix formation  ***
  0   -252.0565795605   0.000000000000 0.03018505  0.00144780  0.2194738 0.7000
  1   -252.1107461961  -0.054166635680 0.02226817  0.00108604  0.1271678 0.7000
                               ***Turning on DIIS***
  2   -252.1432051180  -0.032458921850 0.04604752  0.00235566  0.0688530 0.0000
  3   -251.9733678476   0.169837270425 0.01773114  0.00080084  0.0465988 0.0000
  4   -252.2270529425  -0.253685094899 0.00804085  0.00040117  0.0084443 0.0000
  5   -252.2179852167   0.009067725796 0.00426302  0.00029465  0.0068886 0.0000
  6   -252.2181660946  -0.000180877938 0.00539123  0.00033449  0.0049872 0.0000
  7   -252.2236202415  -0.005454146850 0.00584133  0.00034649  0.0037986 0.0000
  8   -252.2248784582  -0.001258216783 0.00751051  0.00044026  0.0028670 0.0000
  9   -252.2226974963   0.002180961960 0.00660484  0.00039450  0.0020333 0.0000
 10   -252.2237603639  -0.001062867667 0.00271606  0.00017989  0.0012611 0.0000
 11   -252.2235451155   0.000215248435 0.00350168  0.00023372  0.0008350 0.0000
 12   -252.2210351592   0.002509956311 0.00166882  0.00006297  0.0005787 0.0000
 13   -252.2215113366  -0.000476177439 0.00117748  0.00004336  0.0004711 0.0000
 14   -252.2211801956   0.000331141076 0.00128244  0.00004036  0.0003546 0.0000
 15   -252.2214567254  -0.000276529809 0.00089724  0.00002913  0.0002523 0.0000
 16   -252.2213871180   0.000069607401 0.00098611  0.00003379  0.0002215 0.0000
 17   -252.2208850822   0.000502035806 0.00173526  0.00006324  0.0001954 0.0000
 18   -252.2211457636  -0.000260681464 0.00134507  0.00005193  0.0001324 0.0000
 19   -252.2215812560  -0.000435492368 0.00047948  0.00001679  0.0000569 0.0000
               *** Restarting incremental Fock matrix formation ***
                                   *** Resetting DIIS ***
 20   -252.2217709225  -0.000189666498 0.00003507  0.00000198  0.0000303 0.0000
 21   -252.2217672126   0.000003709915 0.00003769  0.00000163  0.0000245 0.0000
 22   -252.2217300252   0.000037187347 0.00006727  0.00000319  0.0000213 0.0000
 23   -252.2217594257  -0.000029400453 0.00003797  0.00000128  0.0000141 0.0000
 24   -252.2217576317   0.000001794023 0.00003100  0.00000097  0.0000101 0.0000
 25   -252.2217613618  -0.000003730123 0.00003653  0.00000118  0.0000067 0.0000
 26   -252.2217661884  -0.000004826630 0.00002453  0.00000089  0.0000050 0.0000
 27   -252.2217626271   0.000003561301 0.00002661  0.00000098  0.0000039 0.0000
 28   -252.2217637533  -0.000001126221 0.00002496  0.00000086  0.0000023 0.0000
 29   -252.2217659038  -0.000002150476 0.00001280  0.00000041  0.0000012 0.0000
 30   -252.2217667373  -0.000000833517 0.00000914  0.00000030  0.0000007 0.0000
 31   -252.2217701163  -0.000003378976 0.00000146  0.00000005  0.0000003 0.0000
 32   -252.2217704523  -0.000000336035 0.00000081  0.00000003  0.0000002 0.0000
 33   -252.2217709468  -0.000000494445 0.00000035  0.00000001  0.0000002 0.0000
 34   -252.2217709661  -0.000000019275 0.00000051  0.00000002  0.0000002 0.0000
 35   -252.2217709980  -0.000000031982 0.00000044  0.00000001  0.0000001 0.0000
 36   -252.2217709540   0.000000044090 0.00000028  0.00000001  0.0000001 0.0000
 37   -252.2217709794  -0.000000025417 0.00000017  0.00000001  0.0000000 0.0000
 38   -252.2217709397   0.000000039645 0.00000024  0.00000001  0.0000000 0.0000
 39   -252.2217709311   0.000000008621 0.00000022  0.00000001  0.0000000 0.0000
               *** Restarting incremental Fock matrix formation ***
                                   *** Resetting DIIS ***
                            ***DIIS convergence achieved***

               *****************************************************
               *                     SUCCESS                       *
               *           SCF CONVERGED AFTER  40 CYCLES          *
               *****************************************************


----------------
TOTAL SCF ENERGY
----------------

Total Energy       :         -252.22177104 Eh           -6863.30331 eV

Components:
Nuclear Repulsion  :          121.99543031 Eh            3319.66443 eV
Electronic Energy  :         -374.21720135 Eh          -10182.96774 eV
One Electron Energy:         -589.43955590 Eh          -16039.46575 eV
Two Electron Energy:          215.22235455 Eh            5856.49801 eV

Virial components:
Potential Energy   :         -504.37194081 Eh          -13724.65826 eV
Kinetic Energy     :          252.15016977 Eh            6861.35494 eV
Virial Ratio       :            2.00028396


---------------
SCF CONVERGENCE
---------------

  Last Energy change         ...   -1.1043e-07  Tolerance :   1.0000e-09
  Last MAX-Density change    ...    2.2557e-08  Tolerance :   1.0000e-08
  Last RMS-Density change    ...    7.1690e-10  Tolerance :   1.0000e-09
  Last DIIS Error            ...    1.5565e-08  Tolerance :   1.0000e-08

             **** THE GBW FILE WAS UPDATED (input.gbw) ****
             **** DENSITY input.scfp WAS UPDATED ****
             **** ENERGY FILE WAS UPDATED (input.en.tmp) ****
----------------------
UHF SPIN CONTAMINATION
----------------------

Expectation value of <S**2>     :     0.834122
Ideal value S*(S+1) for S=0.5   :     0.750000
Deviation                       :     0.084122

             **** THE GBW FILE WAS UPDATED (input.gbw) ****
             **** DENSITY input.scfp WAS UPDATED ****
----------------
ORBITAL ENERGIES
----------------
                 SPIN UP ORBITALS
  NO   OCC          E(Eh)            E(eV) 
   0   1.0000     -26.259125      -714.5471 
   1   1.0000     -20.643763      -561.7454 
   2   1.0000     -11.391738      -309.9850 
   3   1.0000     -11.259160      -306.3773 
   4   1.0000      -1.555255       -42.3206 
   5   1.0000      -1.488609       -40.5071 
   6   1.0000      -1.043456       -28.3939 
   7   1.0000      -0.856957       -23.3190 
   8   1.0000      -0.748744       -20.3744 
   9   1.0000      -0.706765       -19.2321 
  10   1.0000      -0.679339       -18.4857 
  11   1.0000      -0.637283       -17.3413 
  12   1.0000      -0.605656       -16.4807 
  13   1.0000      -0.592404       -16.1201 
  14   1.0000      -0.566903       -15.4262 
  15   1.0000      -0.525966       -14.3123 
  16   1.0000      -0.442092       -12.0299 
  17   0.0000       0.192498         5.2381 
  18   0.0000       0.237437         6.4610 
  19   0.0000       0.257444         7.0054 
  20   0.0000       0.297257         8.0888 
  21   0.0000       0.333004         9.0615 
  22   0.0000       0.408983        11.1290 
  23   0.0000       0.441347        12.0097 
  24   0.0000       0.716786        19.5047 
  25   0.0000       0.762205        20.7407 
  26   0.0000       0.765288        20.8246 
  27   0.0000       0.837373        22.7861 
  28   0.0000       0.890903        24.2427 
  29   0.0000       0.907578        24.6964 
  30   0.0000       0.974392        26.5146 
  31   0.0000       1.033050        28.1107 
  32   0.0000       1.105650        30.0863 
  33   0.0000       1.113547        30.3012 
  34   0.0000       1.172439        31.9037 
  35   0.0000       1.198187        32.6043 
  36   0.0000       1.236805        33.6552 
  37   0.0000       1.313943        35.7542 
  38   0.0000       1.430346        38.9217 
  39   0.0000       1.573792        42.8251 
  40   0.0000       1.604199        43.6525 
  41   0.0000       1.657298        45.0974 
  42   0.0000       1.700598        46.2756 
  43   0.0000       1.765350        48.0376 
  44   0.0000       1.883891        51.2633 
  45   0.0000       1.970185        53.6114 
  46   0.0000       2.015754        54.8515 
  47   0.0000       2.058368        56.0110 
  48   0.0000       2.070664        56.3456 
  49   0.0000       2.171247        59.0826 
  50   0.0000       2.187796        59.5330 
  51   0.0000       2.218696        60.3738 
  52   0.0000       2.234372        60.8004 
  53   0.0000       2.254599        61.3508 
  54   0.0000       2.351294        63.9820 
  55   0.0000       2.436747        66.3073 
  56   0.0000       2.509099        68.2761 
  57   0.0000       2.626172        71.4618 
  58   0.0000       2.712242        73.8039 
  59   0.0000       2.863327        77.9151 
  60   0.0000       3.001062        81.6630 
  61   0.0000       3.103101        84.4397 
  62   0.0000       3.304721        89.9260 
  63   0.0000       3.368153        91.6521 

                 SPIN DOWN ORBITALS
  NO   OCC          E(Eh)            E(eV) 
   0   1.0000     -26.241282      -714.0616 
   1   1.0000     -20.616568      -561.0053 
   2   1.0000     -11.399328      -310.1915 
   3   1.0000     -11.256832      -306.3140 
   4   1.0000      -1.504399       -40.9368 
   5   1.0000      -1.423553       -38.7368 
   6   1.0000      -1.031959       -28.0810 
   7   1.0000      -0.799969       -21.7683 
   8   1.0000      -0.694292       -18.8926 
   9   1.0000      -0.669394       -18.2151 
  10   1.0000      -0.662774       -18.0350 
  11   1.0000      -0.598661       -16.2904 
  12   1.0000      -0.584503       -15.9051 
  13   1.0000      -0.556749       -15.1499 
  14   1.0000      -0.505263       -13.7489 
  15   1.0000      -0.446107       -12.1392 
  16   0.0000       0.039004         1.0613 
  17   0.0000       0.218824         5.9545 
  18   0.0000       0.246120         6.6973 
  19   0.0000       0.270530         7.3615 
  20   0.0000       0.303540         8.2597 
  21   0.0000       0.337339         9.1795 
  22   0.0000       0.415204        11.2983 
  23   0.0000       0.451144        12.2762 
  24   0.0000       0.710498        19.3336 
  25   0.0000       0.773906        21.0591 
  26   0.0000       0.778628        21.1875 
  27   0.0000       0.835938        22.7470 
  28   0.0000       0.892876        24.2964 
  29   0.0000       0.935588        25.4586 
  30   0.0000       1.013773        27.5862 
  31   0.0000       1.036250        28.1978 
  32   0.0000       1.111462        30.2444 
  33   0.0000       1.125912        30.6376 
  34   0.0000       1.176728        32.0204 
  35   0.0000       1.202540        32.7228 
  36   0.0000       1.288867        35.0719 
  37   0.0000       1.360458        37.0199 
  38   0.0000       1.442301        39.2470 
  39   0.0000       1.580654        43.0118 
  40   0.0000       1.621146        44.1136 
  41   0.0000       1.680191        45.7203 
  42   0.0000       1.710598        46.5477 
  43   0.0000       1.785605        48.5888 
  44   0.0000       1.903698        51.8023 
  45   0.0000       1.989229        54.1297 
  46   0.0000       2.041526        55.5527 
  47   0.0000       2.090771        56.8928 
  48   0.0000       2.100966        57.1702 
  49   0.0000       2.178652        59.2841 
  50   0.0000       2.199720        59.8574 
  51   0.0000       2.235620        60.8343 
  52   0.0000       2.247031        61.1448 
  53   0.0000       2.268863        61.7389 
  54   0.0000       2.362554        64.2884 
  55   0.0000       2.446743        66.5793 
  56   0.0000       2.516715        68.4833 
  57   0.0000       2.631448        71.6053 
  58   0.0000       2.717686        73.9520 
  59   0.0000       2.873731        78.1982 
  60   0.0000       3.011467        81.9462 
  61   0.0000       3.115599        84.7798 
  62   0.0000       3.319249        90.3214 
  63   0.0000       3.372091        91.7593 

                    ********************************
                    * MULLIKEN POPULATION ANALYSIS *
                    ********************************

--------------------------------------------
MULLIKEN ATOMIC CHARGES AND SPIN POPULATIONS
--------------------------------------------
   0 C :   -0.558409    0.068002
   1 C :    0.443757   -0.276542
   2 F :   -0.505521    0.221822
   3 O :   -0.338924    0.611816
   4 H :    0.237220   -0.004339
   5 H :    0.209655    0.002903
   6 H :    0.204120   -0.014187
   7 H :    0.308102    0.390526
Sum of atomic charges         :    0.0000000
Sum of atomic spin populations:    1.0000000

-----------------------------------------------------
MULLIKEN REDUCED ORBITAL CHARGES AND SPIN POPULATIONS
-----------------------------------------------------
CHARGE
  0 C s       :     3.347305  s :     3.347305
      pz      :     0.923446  p :     3.165508
      px      :     1.102949
      py      :     1.139114
      dz2     :     0.008430  d :     0.045595
      dxz     :     0.009335
      dyz     :     0.010146
      dx2y2   :     0.005789
      dxy     :     0.011894
  1 C s       :     3.119892  s :     3.119892
      pz      :     0.955131  p :     2.320239
      px      :     0.847590
      py      :     0.517517
      dz2     :     0.021869  d :     0.116112
      dxz     :     0.031256
      dyz     :     0.011465
      dx2y2   :     0.026242
      dxy     :     0.025279
  2 F s       :     3.996883  s :     3.996883
      pz      :     1.942700  p :     5.498379
      px      :     1.921149
      py      :     1.634530
      dz2     :     0.001602  d :     0.010260
      dxz     :     0.000106
      dyz     :     0.002095
      dx2y2   :     0.004020
      dxy     :     0.002436
  3 O s       :     3.873838  s :     3.873838
      pz      :     1.459281  p :     4.431014
      px      :     1.326689
      py      :     1.645044
      dz2     :     0.004990  d :     0.034073
      dxz     :     0.008923
      dyz     :     0.003229
      dx2y2   :     0.008576
      dxy     :     0.008355
  4 H s       :     0.762780  s :     0.762780
  5 H s       :     0.790345  s :     0.790345
  6 H s       :     0.795880  s :     0.795880
  7 H s       :     0.691898  s :     0.691898

SPIN
  0 C s       :     0.008659  s :     0.008659
      pz      :     0.040098  p :     0.060392
      px      :     0.012589
      py      :     0.007705
      dz2     :    -0.000829  d :    -0.001048
      dxz     :     0.000462
      dyz     :    -0.000242
      dx2y2   :    -0.000194
      dxy     :    -0.000246
  1 C s       :    -0.030046  s :    -0.030046
      pz      :    -0.094540  p :    -0.262219
      px      :    -0.048306
      py      :    -0.119373
      dz2     :     0.000596  d :     0.015722
      dxz     :     0.011902
      dyz     :    -0.000264
      dx2y2   :     0.004494
      dxy     :    -0.001005
  2 F s       :    -0.000109  s :    -0.000109
      pz      :     0.010557  p :     0.223381
      px      :     0.002491
      py      :     0.210334
      dz2     :    -0.000481  d :    -0.001450
      dxz     :    -0.000024
      dyz     :     0.000325
      dx2y2   :    -0.001416
      dxy     :     0.000145
  3 O s       :     0.025154  s :     0.025154
      pz      :     0.341128  p :     0.591560
      px      :     0.190199
      py      :     0.060233
      dz2     :    -0.001289  d :    -0.004898
      dxz     :    -0.000992
      dyz     :    -0.000697
      dx2y2   :    -0.001709
      dxy     :    -0.000211
  4 H s       :    -0.004339  s :    -0.004339
  5 H s       :     0.002903  s :     0.002903
  6 H s       :    -0.014187  s :    -0.014187
  7 H s       :     0.390526  s :     0.390526


                     *******************************
                     * LOEWDIN POPULATION ANALYSIS *
                     *******************************

-------------------------------------------
LOEWDIN ATOMIC CHARGES AND SPIN POPULATIONS
-------------------------------------------
   0 C :   -0.374632    0.048989
   1 C :    0.135974   -0.158785
   2 F :   -0.389482    0.241017
   3 O :   -0.100499    0.552207
   4 H :    0.166961   -0.003990
   5 H :    0.151577    0.001533
   6 H :    0.151213   -0.010426
   7 H :    0.258887    0.329456

----------------------------------------------------
LOEWDIN REDUCED ORBITAL CHARGES AND SPIN POPULATIONS
----------------------------------------------------
CHARGE
  0 C s       :     2.982644  s :     2.982644
      pz      :     1.042106  p :     3.316108
      px      :     1.125578
      py      :     1.148424
      dz2     :     0.016564  d :     0.075880
      dxz     :     0.016502
      dyz     :     0.017025
      dx2y2   :     0.008036
      dxy     :     0.017752
  1 C s       :     2.905377  s :     2.905377
      pz      :     1.037153  p :     2.705231
      px      :     0.998737
      py      :     0.669341
      dz2     :     0.047626  d :     0.253418
      dxz     :     0.066650
      dyz     :     0.021834
      dx2y2   :     0.059263
      dxy     :     0.058044
  2 F s       :     3.869570  s :     3.869570
      pz      :     1.943094  p :     5.500737
      px      :     1.925636
      py      :     1.632006
      dz2     :     0.002995  d :     0.019175
      dxz     :     0.000280
      dyz     :     0.004094
      dx2y2   :     0.008199
      dxy     :     0.003606
  3 O s       :     3.549419  s :     3.549419
      pz      :     1.455771  p :     4.487950
      px      :     1.421968
      py      :     1.610210
      dz2     :     0.009843  d :     0.063131
      dxz     :     0.018206
      dyz     :     0.004961
      dx2y2   :     0.016946
      dxy     :     0.013175
  4 H s       :     0.833039  s :     0.833039
  5 H s       :     0.848423  s :     0.848423
  6 H s       :     0.848787  s :     0.848787
  7 H s       :     0.741113  s :     0.741113

SPIN
  0 C s       :     0.008963  s :     0.008963
      pz      :     0.031943  p :     0.043296
      px      :     0.006918
      py      :     0.004436
      dz2     :    -0.001409  d :    -0.003271
      dxz     :    -0.000032
      dyz     :    -0.000775
      dx2y2   :    -0.000369
      dxy     :    -0.000686
  1 C s       :    -0.021102  s :    -0.021102
      pz      :    -0.037987  p :    -0.178378
      px      :    -0.039226
      py      :    -0.101165
      dz2     :     0.003344  d :     0.040695
      dxz     :     0.025326
      dyz     :     0.001089
      dx2y2   :     0.011751
      dxy     :    -0.000815
  2 F s       :     0.011046  s :     0.011046
      pz      :     0.012946  p :     0.229408
      px      :     0.002514
      py      :     0.213948
      dz2     :    -0.000175  d :     0.000563
      dxz     :    -0.000072
      dyz     :     0.000838
      dx2y2   :    -0.000195
      dxy     :     0.000167
  3 O s       :     0.013846  s :     0.013846
      pz      :     0.323828  p :     0.546593
      px      :     0.169414
      py      :     0.053350
      dz2     :    -0.001770  d :    -0.008232
      dxz     :    -0.000616
      dyz     :    -0.001383
      dx2y2   :    -0.003371
      dxy     :    -0.001091
  4 H s       :    -0.003990  s :    -0.003990
  5 H s       :     0.001533  s :     0.001533
  6 H s       :    -0.010426  s :    -0.010426
  7 H s       :     0.329456  s :     0.329456


                      *****************************
                      * MAYER POPULATION ANALYSIS *
                      *****************************

  NA   - Mulliken gross atomic population
  ZA   - Total nuclear charge
  QA   - Mulliken gross atomic charge
  VA   - Mayer's total valence
  BVA  - Mayer's bonded valence
  FA   - Mayer's free valence

  ATOM       NA         ZA         QA         VA         BVA        FA
  0 C      6.5584     6.0000    -0.5584     3.7079     3.7042     0.0037
  1 C      5.5562     6.0000     0.4438     3.6591     3.6032     0.0560
  2 F      9.5055     9.0000    -0.5055     0.7535     0.6867     0.0668
  3 O      8.3389     8.0000    -0.3389     2.1127     1.7722     0.3405
  4 H      0.7628     1.0000     0.2372     0.9134     0.9133     0.0000
  5 H      0.7903     1.0000     0.2097     0.9191     0.9191     0.0000
  6 H      0.7959     1.0000     0.2041     0.9231     0.9228     0.0002
  7 H      0.6919     1.0000     0.3081     0.8779     0.7243     0.1537

  Mayer bond orders larger than 0.100000
B(  0-C ,  1-C ) :   0.9012 B(  0-C ,  4-H ) :   0.9284 B(  0-C ,  5-H ) :   0.9372 
B(  0-C ,  6-H ) :   0.9413 B(  1-C ,  2-F ) :   0.4752 B(  1-C ,  3-O ) :   1.6586 
B(  1-C ,  7-H ) :   0.6012 B(  2-F ,  7-H ) :   0.1110 

-------
TIMINGS
-------

Total SCF time: 0 days 0 hours 0 min 10 sec 

Total time                  ....      10.515 sec
Sum of individual times     ....       9.907 sec  ( 94.2%)

Fock matrix formation       ....       9.502 sec  ( 90.4%)
Diagonalization             ....       0.089 sec  (  0.8%)
Density matrix formation    ....       0.002 sec  (  0.0%)
Population analysis         ....       0.060 sec  (  0.6%)
Initial guess               ....       0.100 sec  (  0.9%)
Orbital Transformation      ....       0.000 sec  (  0.0%)
Orbital Orthonormalization  ....       0.000 sec  (  0.0%)
DIIS solution               ....       0.072 sec  (  0.7%)

Maximum memory used throughout the entire SCF-calculation: 228.6 MB

------------------------------------------------------------------------------
                                ORCA  MP2 
------------------------------------------------------------------------------

MP2 will be done in the AO integral direct mode
The Q1-step will be done using symmetric double matrices
Dimension of the basis                    ...   64
Memory devoted for MP2                    ...  256 MB   
Memory needed for all in one shot         ...   18 MB
Number of MOs that can be treated together...  251      
MP2 density construction                  ... relaxed
The MP2 gradient is requested => amplitudes will be stored on disk
Total number of MOs              ...   17
Number of MOs treated per batch  ...   17 
Number of batches necessary      ...    1 
OPERATORS   0/  0 PASS   0
OPERATORS   0/  1 PASS   0
Total number of MOs              ...   17
Number of MOs treated per batch  ...   16 
Number of batches necessary      ...    1 
OPERATORS   1/  0 PASS   0
OPERATORS   1/  1 PASS   0

Correlation energy components
 E2 and T2 for alpha/alpha pairs :     -0.079203296 Eh
 E2 and T2 for beta/beta   pairs :     -0.085867477 Eh
 E2 and T2 for alpha/beta  pairs :     -0.444738204 Eh

-----------------------------------------------
 MP2 CORRELATION ENERGY   :     -0.609808977 Eh
-----------------------------------------------


---------------------
MP2 DENSITY FORMATION
---------------------

Completing the external part of the density      ... done
Storing the unrelaxed density                    ... done

Calculating G(D)                                 ... done
Completing the Lagrangian                        ... done
Solving the Z-vector equations                   ... 

------------------------------------------------------------------------------
                           ORCA CP-SCF CALCULATION
------------------------------------------------------------------------------

Input orbitals are from        ... input.gbw
Input Perturbation             ... input.pin.tmp
Wavefunction output            ... input.pout.tmp
Perturbation mode              ... Real perturbation (singlet)
Solver                         ... POPLE
Max. number of iterations      ... 128
Convergence tolerance          ... 3.000e-05
Integral handling              ... Direct
Number of perturbations        ... 1
Number of operators            ... 2
Orbital ranges used for CP-SCF:
 Operator 0:  Orbitals   0... 16  to  17... 63
 Operator 1:  Orbitals   0... 15  to  16... 63
Variables per perturbation     ... 1567
Memory available               ... 1017.7 MB
Memory needed per perturbation ...   3.2 MB
Perturbations treated per batch... 1
Number of batches              ... 1
     CP-SCF ITERATION   0:   1.2628e-01 (   0.2 sec)
     CP-SCF ITERATION   1:   9.9509e-02 (   0.2 sec)
     CP-SCF ITERATION   2:   4.7782e-02 (   0.2 sec)
     CP-SCF ITERATION   3:   2.9592e-02 (   0.2 sec)
     CP-SCF ITERATION   4:   1.2956e-02 (   0.2 sec)
     CP-SCF ITERATION   5:   7.7304e-03 (   0.2 sec)
     CP-SCF ITERATION   6:   3.1180e-03 (   0.2 sec)
     CP-SCF ITERATION   7:   2.4988e-03 (   0.2 sec)
     CP-SCF ITERATION   8:   2.3119e-03 (   0.2 sec)
     CP-SCF ITERATION   9:   1.6705e-03 (   0.2 sec)
     CP-SCF ITERATION  10:   9.7860e-04 (   0.2 sec)
     CP-SCF ITERATION  11:   5.9428e-04 (   0.2 sec)
     CP-SCF ITERATION  12:   2.5905e-04 (   0.2 sec)
     CP-SCF ITERATION  13:   8.9544e-05 (   0.2 sec)
     CP-SCF ITERATION  14:   3.0940e-05 (   0.2 sec)
     CP-SCF ITERATION  15:   1.1822e-05 (   0.2 sec)
                    *** THE CP-SCF HAS CONVERGED ***
                                                 ... done
Finalizing the relaxed density                   ... done
Transforming P to the AO basis                   ... done
Storing the relaxed density                      ... done

------------------------------------
ENERGY WEIGHTED DENSITY FINALIZATION
------------------------------------

Gathering the parts of the W-matrix              ...                                                                                                           done
Forming the Z-density                            ... done
Transforming Z to the AO basis                   ... done
Calculating G(Z)                                 ... done
Finalizing the W-matrix                          ...                                                                                                           done
Transforming W to the AO basis and storing       ... done

                *********************************************
                * UNRELAXED MP2 DENSITY POPULATION ANALYSIS *
                *********************************************

------------------------------------------------------------------------------
                           ORCA POPULATION ANALYSIS
------------------------------------------------------------------------------
Input electron density              ... input.pmp2ur
Input spin density                  ... input.rmp2ur
BaseName (.gbw .S,...)              ... input

                    ********************************
                    * MULLIKEN POPULATION ANALYSIS *
                    ********************************

------------------------------------------
MULLIKEN ATOMIC CHARGES AND SPIN DENSITIES
------------------------------------------
   0 C :   -0.563249    0.066652
   1 C :    0.418811   -0.263677
   2 F :   -0.489585    0.223110
   3 O :   -0.327177    0.602906
   4 H :    0.238541   -0.004134
   5 H :    0.211273    0.002978
   6 H :    0.206011   -0.013907
   7 H :    0.305374    0.386073
Sum of atomic charges       :    0.0000000
Sum of atomic spin densities:    1.0000000

---------------------------------------------------
MULLIKEN REDUCED ORBITAL CHARGES AND SPIN DENSITIES
---------------------------------------------------
CHARGE
  0 C s       :     3.344115  s :     3.344115
      pz      :     0.922087  p :     3.157916
      px      :     1.100135
      py      :     1.135695
      dz2     :     0.011476  d :     0.061218
      dxz     :     0.012349
      dyz     :     0.013295
      dx2y2   :     0.009089
      dxy     :     0.015009
  1 C s       :     3.119794  s :     3.119794
      pz      :     0.951639  p :     2.333370
      px      :     0.848349
      py      :     0.533382
      dz2     :     0.024398  d :     0.128024
      dxz     :     0.034065
      dyz     :     0.013926
      dx2y2   :     0.028294
      dxy     :     0.027341
  2 F s       :     3.994662  s :     3.994662
      pz      :     1.933057  p :     5.465177
      px      :     1.910724
      py      :     1.621395
      dz2     :     0.005375  d :     0.029746
      dxz     :     0.003816
      dyz     :     0.006124
      dx2y2   :     0.007946
      dxy     :     0.006484
  3 O s       :     3.868686  s :     3.868686
      pz      :     1.453212  p :     4.404679
      px      :     1.320606
      py      :     1.630861
      dz2     :     0.008954  d :     0.053812
      dxz     :     0.012707
      dyz     :     0.007218
      dx2y2   :     0.012511
      dxy     :     0.012423
  4 H s       :     0.761459  s :     0.761459
  5 H s       :     0.788727  s :     0.788727
  6 H s       :     0.793989  s :     0.793989
  7 H s       :     0.694626  s :     0.694626

SPIN
  0 C s       :     0.008423  s :     0.008423
      pz      :     0.039212  p :     0.058973
      px      :     0.012298
      py      :     0.007463
      dz2     :    -0.000710  d :    -0.000745
      dxz     :     0.000519
      dyz     :    -0.000165
      dx2y2   :    -0.000170
      dxy     :    -0.000219
  1 C s       :    -0.029625  s :    -0.029625
      pz      :    -0.089140  p :    -0.248767
      px      :    -0.045638
      py      :    -0.113989
      dz2     :     0.000558  d :     0.014715
      dxz     :     0.011604
      dyz     :    -0.000435
      dx2y2   :     0.004203
      dxy     :    -0.001215
  2 F s       :     0.000531  s :     0.000531
      pz      :     0.011391  p :     0.223372
      px      :     0.002753
      py      :     0.209229
      dz2     :    -0.000388  d :    -0.000794
      dxz     :    -0.000032
      dyz     :     0.000482
      dx2y2   :    -0.001164
      dxy     :     0.000308
  3 O s       :     0.026646  s :     0.026646
      pz      :     0.334703  p :     0.578280
      px      :     0.185543
      py      :     0.058033
      dz2     :    -0.000477  d :    -0.002019
      dxz     :    -0.000170
      dyz     :    -0.000172
      dx2y2   :    -0.001273
      dxy     :     0.000072
  4 H s       :    -0.004134  s :    -0.004134
  5 H s       :     0.002978  s :     0.002978
  6 H s       :    -0.013907  s :    -0.013907
  7 H s       :     0.386073  s :     0.386073


                     *******************************
                     * LOEWDIN POPULATION ANALYSIS *
                     *******************************

-----------------------------------------
LOEWDIN ATOMIC CHARGES AND SPIN DENSITIES
-----------------------------------------
   0 C :   -0.382451    0.048535
   1 C :    0.114681   -0.147715
   2 F :   -0.374177    0.241693
   3 O :   -0.092319    0.544424
   4 H :    0.169299   -0.003794
   5 H :    0.154105    0.001596
   6 H :    0.153914   -0.010162
   7 H :    0.256948    0.325423

--------------------------------------------------
LOEWDIN REDUCED ORBITAL CHARGES AND SPIN DENSITIES
--------------------------------------------------
CHARGE
  0 C s       :     2.983039  s :     2.983039
      pz      :     1.038577  p :     3.305711
      px      :     1.122246
      py      :     1.144888
      dz2     :     0.019980  d :     0.093700
      dxz     :     0.019999
      dyz     :     0.020645
      dx2y2   :     0.011715
      dxy     :     0.021362
  1 C s       :     2.906266  s :     2.906266
      pz      :     1.032577  p :     2.712224
      px      :     0.997179
      py      :     0.682467
      dz2     :     0.050243  d :     0.266829
      dxz     :     0.070061
      dyz     :     0.024559
      dx2y2   :     0.061793
      dxy     :     0.060173
  2 F s       :     3.867426  s :     3.867426
      pz      :     1.933267  p :     5.467782
      px      :     1.915300
      py      :     1.619215
      dz2     :     0.006819  d :     0.038969
      dxz     :     0.004020
      dyz     :     0.008162
      dx2y2   :     0.012176
      dxy     :     0.007792
  3 O s       :     3.546085  s :     3.546085
      pz      :     1.449608  p :     4.461167
      px      :     1.414760
      py      :     1.596799
      dz2     :     0.013963  d :     0.085067
      dxz     :     0.022646
      dyz     :     0.009098
      dx2y2   :     0.021473
      dxy     :     0.017887
  4 H s       :     0.830701  s :     0.830701
  5 H s       :     0.845895  s :     0.845895
  6 H s       :     0.846086  s :     0.846086
  7 H s       :     0.743052  s :     0.743052

SPIN
  0 C s       :     0.009000  s :     0.009000
      pz      :     0.031360  p :     0.042411
      px      :     0.006741
      py      :     0.004310
      dz2     :    -0.001257  d :    -0.002876
      dxz     :     0.000044
      dyz     :    -0.000678
      dx2y2   :    -0.000342
      dxy     :    -0.000643
  1 C s       :    -0.020663  s :    -0.020663
      pz      :    -0.033939  p :    -0.166330
      px      :    -0.036346
      py      :    -0.096046
      dz2     :     0.003323  d :     0.039279
      dxz     :     0.024683
      dyz     :     0.000915
      dx2y2   :     0.011301
      dxy     :    -0.000943
  2 F s       :     0.011382  s :     0.011382
      pz      :     0.013851  p :     0.229193
      px      :     0.002889
      py      :     0.212453
      dz2     :    -0.000110  d :     0.001118
      dxz     :    -0.000075
      dyz     :     0.000995
      dx2y2   :    -0.000019
      dxy     :     0.000326
  3 O s       :     0.015075  s :     0.015075
      pz      :     0.317704  p :     0.534614
      px      :     0.165531
      py      :     0.051378
      dz2     :    -0.000953  d :    -0.005266
      dxz     :     0.000181
      dyz     :    -0.000846
      dx2y2   :    -0.002868
      dxy     :    -0.000781
  4 H s       :    -0.003794  s :    -0.003794
  5 H s       :     0.001596  s :     0.001596
  6 H s       :    -0.010162  s :    -0.010162
  7 H s       :     0.325423  s :     0.325423


                      *****************************
                      * MAYER POPULATION ANALYSIS *
                      *****************************

  NA   - Mulliken gross atomic population
  ZA   - Total nuclear charge
  QA   - Mulliken gross atomic charge
  VA   - Mayer's total valence
  BVA  - Mayer's bonded valence
  FA   - Mayer's free valence

  ATOM       NA         ZA         QA         VA         BVA        FA
  0 C      6.5632     6.0000    -0.5632     3.8039     3.5543     0.2495
  1 C      5.5812     6.0000     0.4188     3.7359     3.3966     0.3393
  2 F      9.4896     9.0000    -0.4896     1.0569     0.6266     0.4304
  3 O      8.3272     8.0000    -0.3272     2.3312     1.6529     0.6783
  4 H      0.7615     1.0000     0.2385     0.9154     0.8797     0.0357
  5 H      0.7887     1.0000     0.2113     0.9214     0.8852     0.0363
  6 H      0.7940     1.0000     0.2060     0.9252     0.8888     0.0363
  7 H      0.6946     1.0000     0.3054     0.8822     0.6921     0.1901

  Mayer bond orders larger than 0.100000
B(  0-C ,  1-C ) :   0.8547 B(  0-C ,  4-H ) :   0.8960 B(  0-C ,  5-H ) :   0.9044 
B(  0-C ,  6-H ) :   0.9084 B(  1-C ,  2-F ) :   0.4380 B(  1-C ,  3-O ) :   1.5593 
B(  1-C ,  7-H ) :   0.5787 B(  2-F ,  7-H ) :   0.1051 


                *******************************************
                * RELAXED MP2 DENSITY POPULATION ANALYSIS *
                *******************************************

------------------------------------------------------------------------------
                           ORCA POPULATION ANALYSIS
------------------------------------------------------------------------------
Input electron density              ... input.pmp2re
Input spin density                  ... input.rmp2re
BaseName (.gbw .S,...)              ... input

                    ********************************
                    * MULLIKEN POPULATION ANALYSIS *
                    ********************************

------------------------------------------
MULLIKEN ATOMIC CHARGES AND SPIN DENSITIES
------------------------------------------
   0 C :   -0.568990    0.017940
   1 C :    0.396102    0.227334
   2 F :   -0.402049    0.194879
   3 O :   -0.371553    0.202687
   4 H :    0.234226    0.008863
   5 H :    0.221036    0.011807
   6 H :    0.206735    0.000461
   7 H :    0.284494    0.336030
Sum of atomic charges       :    0.0000000
Sum of atomic spin densities:    1.0000000

---------------------------------------------------
MULLIKEN REDUCED ORBITAL CHARGES AND SPIN DENSITIES
---------------------------------------------------
CHARGE
  0 C s       :     3.319688  s :     3.319688
      pz      :     0.942763  p :     3.196349
      px      :     1.114075
      py      :     1.139512
      dz2     :     0.010120  d :     0.052952
      dxz     :     0.010429
      dyz     :     0.011764
      dx2y2   :     0.008127
      dxy     :     0.012512
  1 C s       :     3.133988  s :     3.133988
      pz      :     0.876626  p :     2.339060
      px      :     0.845865
      py      :     0.616568
      dz2     :     0.024572  d :     0.130850
      dxz     :     0.034814
      dyz     :     0.014609
      dx2y2   :     0.029437
      dxy     :     0.027417
  2 F s       :     3.990636  s :     3.990636
      pz      :     1.893881  p :     5.381964
      px      :     1.882005
      py      :     1.606078
      dz2     :     0.005154  d :     0.029448
      dxz     :     0.003808
      dyz     :     0.006512
      dx2y2   :     0.007605
      dxy     :     0.006369
  3 O s       :     3.834817  s :     3.834817
      pz      :     1.559066  p :     4.484194
      px      :     1.369250
      py      :     1.555878
      dz2     :     0.008833  d :     0.052542
      dxz     :     0.011869
      dyz     :     0.006955
      dx2y2   :     0.012169
      dxy     :     0.012716
  4 H s       :     0.765774  s :     0.765774
  5 H s       :     0.778964  s :     0.778964
  6 H s       :     0.793265  s :     0.793265
  7 H s       :     0.715506  s :     0.715506

SPIN
  0 C s       :    -0.003085  s :    -0.003085
      pz      :     0.027145  p :     0.019600
      px      :    -0.003123
      py      :    -0.004422
      dz2     :    -0.000164  d :     0.001424
      dxz     :     0.000766
      dyz     :     0.000281
      dx2y2   :     0.000051
      dxy     :     0.000492
  1 C s       :     0.047868  s :     0.047868
      pz      :     0.062023  p :     0.166164
      px      :     0.061306
      py      :     0.042834
      dz2     :     0.000188  d :     0.013303
      dxz     :     0.011395
      dyz     :    -0.000837
      dx2y2   :     0.003595
      dxy     :    -0.001038
  2 F s       :    -0.001378  s :    -0.001378
      pz      :     0.033022  p :     0.195831
      px      :     0.005205
      py      :     0.157604
      dz2     :    -0.000023  d :     0.000425
      dxz     :    -0.000003
      dyz     :     0.000392
      dx2y2   :    -0.000449
      dxy     :     0.000509
  3 O s       :     0.007238  s :     0.007238
      pz      :     0.155889  p :     0.194617
      px      :     0.066397
      py      :    -0.027669
      dz2     :    -0.000028  d :     0.000831
      dxz     :     0.000334
      dyz     :     0.000356
      dx2y2   :    -0.000197
      dxy     :     0.000367
  4 H s       :     0.008863  s :     0.008863
  5 H s       :     0.011807  s :     0.011807
  6 H s       :     0.000461  s :     0.000461
  7 H s       :     0.336030  s :     0.336030


                     *******************************
                     * LOEWDIN POPULATION ANALYSIS *
                     *******************************

-----------------------------------------
LOEWDIN ATOMIC CHARGES AND SPIN DENSITIES
-----------------------------------------
   0 C :   -0.408202    0.035009
   1 C :    0.133974    0.205451
   2 F :   -0.310521    0.224422
   3 O :   -0.184917    0.212707
   4 H :    0.175735    0.005559
   5 H :    0.167854    0.007521
   6 H :    0.163620    0.000858
   7 H :    0.262458    0.308473

--------------------------------------------------
LOEWDIN REDUCED ORBITAL CHARGES AND SPIN DENSITIES
--------------------------------------------------
CHARGE
  0 C s       :     2.986934  s :     2.986934
      pz      :     1.046475  p :     3.337025
      px      :     1.135657
      py      :     1.154893
      dz2     :     0.018034  d :     0.084244
      dxz     :     0.017722
      dyz     :     0.019136
      dx2y2   :     0.010804
      dxy     :     0.018548
  1 C s       :     2.920224  s :     2.920224
      pz      :     0.965151  p :     2.671849
      px      :     0.976704
      py      :     0.729995
      dz2     :     0.052684  d :     0.273953
      dxz     :     0.071311
      dyz     :     0.025556
      dx2y2   :     0.065098
      dxy     :     0.059304
  2 F s       :     3.870998  s :     3.870998
      pz      :     1.897655  p :     5.400056
      px      :     1.893542
      py      :     1.608859
      dz2     :     0.006866  d :     0.039467
      dxz     :     0.003983
      dyz     :     0.008294
      dx2y2   :     0.012088
      dxy     :     0.008236
  3 O s       :     3.540867  s :     3.540867
      pz      :     1.556707  p :     4.562495
      px      :     1.466241
      py      :     1.539547
      dz2     :     0.012728  d :     0.081555
      dxz     :     0.021505
      dyz     :     0.008359
      dx2y2   :     0.020062
      dxy     :     0.018901
  4 H s       :     0.824265  s :     0.824265
  5 H s       :     0.832146  s :     0.832146
  6 H s       :     0.836380  s :     0.836380
  7 H s       :     0.737542  s :     0.737542

SPIN
  0 C s       :     0.007413  s :     0.007413
      pz      :     0.028567  p :     0.025172
      px      :    -0.001373
      py      :    -0.002021
      dz2     :     0.000351  d :     0.002424
      dxz     :     0.000874
      dyz     :     0.000415
      dx2y2   :     0.000082
      dxy     :     0.000702
  1 C s       :     0.011262  s :     0.011262
      pz      :     0.075454  p :     0.162647
      px      :     0.051708
      py      :     0.035484
      dz2     :     0.000941  d :     0.031542
      dxz     :     0.024952
      dyz     :    -0.000994
      dx2y2   :     0.007786
      dxy     :    -0.001144
  2 F s       :     0.008863  s :     0.008863
      pz      :     0.036839  p :     0.212038
      px      :     0.008051
      py      :     0.167148
      dz2     :     0.000349  d :     0.003521
      dxz     :     0.000040
      dyz     :     0.001282
      dx2y2   :     0.000864
      dxy     :     0.000985
  3 O s       :     0.005393  s :     0.005393
      pz      :     0.157948  p :     0.201684
      px      :     0.067514
      py      :    -0.023778
      dz2     :     0.001084  d :     0.005629
      dxz     :     0.001740
      dyz     :     0.000855
      dx2y2   :     0.001181
      dxy     :     0.000768
  4 H s       :     0.005559  s :     0.005559
  5 H s       :     0.007521  s :     0.007521
  6 H s       :     0.000858  s :     0.000858
  7 H s       :     0.308473  s :     0.308473


                      *****************************
                      * MAYER POPULATION ANALYSIS *
                      *****************************

  NA   - Mulliken gross atomic population
  ZA   - Total nuclear charge
  QA   - Mulliken gross atomic charge
  VA   - Mayer's total valence
  BVA  - Mayer's bonded valence
  FA   - Mayer's free valence

  ATOM       NA         ZA         QA         VA         BVA        FA
  0 C      6.5690     6.0000    -0.5690     3.8132     3.5735     0.2396
  1 C      5.6039     6.0000     0.3961     3.9586     3.8404     0.1182
  2 F      9.4020     9.0000    -0.4020     1.2012     0.8638     0.3373
  3 O      8.3716     8.0000    -0.3716     2.3720     2.2224     0.1496
  4 H      0.7658     1.0000     0.2342     0.9206     0.8879     0.0326
  5 H      0.7790     1.0000     0.2210     0.9221     0.8880     0.0340
  6 H      0.7933     1.0000     0.2067     0.9267     0.8932     0.0335
  7 H      0.7155     1.0000     0.2845     0.8916     0.7603     0.1312

  Mayer bond orders larger than 0.100000
B(  0-C ,  1-C ) :   0.8730 B(  0-C ,  4-H ) :   0.8904 B(  0-C ,  5-H ) :   0.8969 
B(  0-C ,  6-H ) :   0.9020 B(  1-C ,  2-F ) :   0.4690 B(  1-C ,  3-O ) :   2.0082 
B(  1-C ,  7-H ) :   0.5086 B(  2-F ,  3-O ) :   0.1414 B(  2-F ,  7-H ) :   0.2123 



----------------------------------
MP2 DERIVATIVE INTEGRAL GENERATION
----------------------------------


Input Wavefunction Amplitudes       ... input.mp2tbb.tmp
Input Correlated Electron Density   ... input.pmp2re
Input Energy Weighted Density       ... input.wmp2.tmp
Input SCF Electron Density          ... input.scfp

One-Electron Terms    ...
                        ... One-Electron Terms done
Prescreening matrices              ... done

Batch handling in the gradient evaluation:
Memory available                      ...  256.0 MB
Memory per occupied orbital in Q2     ...    1.0 MB
Memory per occupied orbital in Q3     ...    0.0 MB
Total memory requirement per |i>      ...    1.0 MB
Max. Number of orbitals possible      ...    245
Number of orbitals treated per batch  ...     33
Number of batches to be done          ...      1
Batch   0: i=    0 ...    32

---------------------------------------
MP2 TOTAL ENERGY:     -252.831580019 Eh
---------------------------------------

The final MP2 gradient
  0:  -0.00001283  -0.00000450   0.00001953
  1:   0.00036637   0.00021386  -0.00013442
  2:  -0.00015841  -0.00012849  -0.00009434
  3:  -0.00009325  -0.00019164   0.00022729
  4:   0.00015228   0.00000483   0.00005926
  5:  -0.00006603   0.00013834  -0.00007792
  6:  -0.00008282  -0.00015627  -0.00002525
  7:  -0.00010531   0.00012387   0.00002584

-----------------------------------
NORM OF THE MP2 GRADIENT:  0.000679
-----------------------------------

Maximum memory used throughout the entire MP2-calculation: 111.3 MB

-------------------------   --------------------
FINAL SINGLE POINT ENERGY      -252.831580018628
-------------------------   --------------------

------------------------------------------------------------------------------
                         ORCA GEOMETRY RELAXATION STEP
------------------------------------------------------------------------------

Reading the OPT-File                    .... done
Getting information on internals        .... done
Copying old internal coords+grads       .... done
Making the new internal coordinates     .... (new redundants).... done
Validating the new internal coordinates .... (new redundants).... done
Calculating the B-matrix                .... done
Calculating the G,G- and P matrices     .... done
Transforming gradient to internals      .... done
Projecting the internal gradient        .... done
Number of atoms                         ....   8
Number of internal coordinates          ....  28
Current Energy                          ....  -252.831580019 Eh
Current gradient norm                   ....     0.000679336 Eh/bohr
Maximum allowed component of the step   ....  0.300
Current trust radius                    ....  0.300
Evaluating the initial hessian          ....  (Almloef) done
Projecting the Hessian                  .... done
Diagonalizing the Hessian               .... done
Dimension of the hessian                ....  28
Lowest eigenvalues of the Hessian:
  0.012490364  0.044065704  0.110877705  0.111676422  0.114542104
Hessian has   0 negative eigenvalues
Taking P-RFO step
Searching for lambda that maximizes along the lowest mode
TS mode is mode number   0 with eigenvalue   0.01249036 and components:
   1.   -0.00000000
   2.    0.00000000
   3.    0.00000000
   4.    0.00000000
   5.    0.00000000
   6.   -0.00000000
   7.   -0.00000000
   8.   -0.00000000
   9.   -0.00000000
  10.    0.00000000
  11.    0.00000000
  12.   -0.00000000
  13.   -0.00000000
  14.    0.00000000
  15.   -0.00000000
  16.   -0.00000000
  17.    0.00000000
  18.    0.00000000
  19.    0.00000000
  20.    0.33333333
  21.    0.33333333
  22.    0.33333333
  23.    0.33333333
  24.    0.33333333
  25.    0.33333333
  26.    0.33333333
  27.    0.33333333
  28.    0.33333333

Lambda that maximizes along the TS mode:       0.01249918
Searching for lambda that minimizes along all other modes
In cycle   1: lambdaN =  -0.00000039   step =   0.00000039
In cycle   2: lambdaN =  -0.00000039   step =   0.00000000
Lambda that minimizes along all other modes:  -0.00000039
Calculated stepsize too large (   0.9000 >    0.3000). Scaled with    0.3333.
The final length of the internal step   ....       0.3000
Converting the step to cartesian space:
 Initial RMS(Int)=    0.0566946710
Transforming coordinates:
 Iter   0:  RMS(Cart)=    0.0523265008 RMS(Int)=    0.0566555618
 Iter   1:  RMS(Cart)=    0.0013717049 RMS(Int)=    0.0012360550
 Iter   2:  RMS(Cart)=    0.0000714467 RMS(Int)=    0.0000767869
 Iter   3:  RMS(Cart)=    0.0000037329 RMS(Int)=    0.0000033786
 Iter   4:  RMS(Cart)=    0.0000001947 RMS(Int)=    0.0000002089
 Iter   5:  RMS(Cart)=    0.0000000102 RMS(Int)=    0.0000000092
done
Storing new coordinates                 .... done

                                .--------------------.
          ----------------------|Geometry convergence|-------------------------
          Item                value                   Tolerance       Converged
          ---------------------------------------------------------------------
          RMS gradient        0.0000934849            0.0000080000      NO
          MAX gradient        0.0002312411            0.0000300000      NO
          RMS step            0.0566946710            0.0001000000      NO
          MAX step            0.0999999141            0.0002000000      NO
          ........................................................
          Max(Bonds)      0.0002      Max(Angles)    0.01
          Max(Dihed)        5.73      Max(Improp)    0.00
          ---------------------------------------------------------------------

The optimization has not yet converged - more geometry cycles are needed


    ---------------------------------------------------------------------------
                         Redundant Internal Coordinates
                            (Angstroem and degrees)

        Definition                    Value    dE/dq     Step     New-Value  comp.(TS mode)
    ----------------------------------------------------------------------------
     1. B(C   1,C   0)                1.5137  0.000022 -0.0000    1.5137   
     2. B(F   2,C   1)                1.6441 -0.000182  0.0002    1.6443   
     3. B(O   3,C   1)                1.1838  0.000231 -0.0000    1.1837   
     4. B(H   4,C   0)                1.0888  0.000004 -0.0000    1.0888   
     5. B(H   5,C   0)                1.0895  0.000002 -0.0000    1.0895   
     6. B(H   6,C   0)                1.0907  0.000004 -0.0000    1.0907   
     7. B(H   7,C   1)                1.2568 -0.000035  0.0000    1.2568   
     8. A(C   1,C   0,H   5)          107.77 -0.000001    0.00    107.77   
     9. A(H   4,C   0,H   6)          109.08 -0.000015    0.00    109.08   
    10. A(C   1,C   0,H   4)          108.77  0.000006   -0.00    108.77   
    11. A(H   4,C   0,H   5)          111.12 -0.000011    0.00    111.12   
    12. A(H   5,C   0,H   6)          109.72 -0.000017    0.00    109.72   
    13. A(C   1,C   0,H   6)          110.37  0.000039   -0.00    110.37   
    14. A(O   3,C   1,H   7)          113.87 -0.000138    0.01    113.88   
    15. A(F   2,C   1,O   3)          118.51 -0.000007    0.00    118.51   
    16. A(F   2,C   1,H   7)           60.79  0.000009   -0.00     60.79   
    17. A(C   0,C   1,H   7)          109.72  0.000152   -0.01    109.70   
    18. A(C   0,C   1,O   3)          129.26  0.000006    0.00    129.26   
    19. A(C   0,C   1,F   2)          104.63 -0.000013    0.00    104.63   
    20. D(F   2,C   1,C   0,H   5)   -142.63  0.000132    5.73   -136.91          0.33
    21. D(F   2,C   1,C   0,H   6)     97.57  0.000131    5.73    103.30          0.33
    22. D(O   3,C   1,C   0,H   4)    126.18  0.000092    5.73    131.91          0.33
    23. D(O   3,C   1,C   0,H   5)      5.62  0.000101    5.73     11.35          0.33
    24. D(O   3,C   1,C   0,H   6)   -114.18  0.000100    5.73   -108.45          0.33
    25. D(H   7,C   1,C   0,H   4)    -85.82  0.000100    5.73    -80.09          0.33
    26. D(H   7,C   1,C   0,H   5)    153.61  0.000109    5.73    159.34          0.33
    27. D(H   7,C   1,C   0,H   6)     33.81  0.000108    5.73     39.54          0.33
    28. D(F   2,C   1,C   0,H   4)    -22.07  0.000123    5.73    -16.34          0.33
    ----------------------------------------------------------------------------

         *************************************************************
         *                GEOMETRY OPTIMIZATION CYCLE   2            *
         *************************************************************
---------------------------------
CARTESIAN COORDINATES (ANGSTROEM)
---------------------------------
  C      0.850377   -0.108870   -0.167079
  C      0.225920    0.260075    1.161513
  F      0.642069    1.833864    1.393286
  O     -0.772539   -0.139073    1.656481
  H      1.118716    0.805333   -0.694033
  H      0.117536   -0.685823   -0.730159
  H      1.748810   -0.707342   -0.011098
  H      1.128012    0.540287    1.990540

----------------------------
CARTESIAN COORDINATES (A.U.)
----------------------------
  NO LB      ZA    FRAG     MASS         X           Y           Z
   0 C     6.0000    0    12.011    1.606981   -0.205735   -0.315733
   1 C     6.0000    0    12.011    0.426927    0.491470    2.194941
   2 F     9.0000    0    18.998    1.213335    3.465500    2.632929
   3 O     8.0000    0    15.999   -1.459887   -0.262810    3.130296
   4 H     1.0000    0     1.008    2.114067    1.521859   -1.311532
   5 H     1.0000    0     1.008    0.222111   -1.296018   -1.379800
   6 H     1.0000    0     1.008    3.304771   -1.336682   -0.020972
   7 H     1.0000    0     1.008    2.131634    1.020994    3.761575

--------------------------------
INTERNAL COORDINATES (ANGSTROEM)
--------------------------------
 C      0   0   0     0.000000000000     0.00000000     0.00000000
 C      1   0   0     1.513678738255     0.00000000     0.00000000
 F      2   1   0     1.644296268876   104.63143702     0.00000000
 O      2   1   3     1.183736828402   129.25671520   148.25328620
 H      1   2   3     1.088785877184   108.77301278   343.66025773
[...]
AutoCI program output          ... >input.lastautoci

	<< Calculating on displaced geometry   1 (of  48) >>
	<< Calculating on displaced geometry   2 (of  48) >>
	<< Calculating on displaced geometry   3 (of  48) >>
	<< Calculating on displaced geometry   4 (of  48) >>
	<< Calculating on displaced geometry   5 (of  48) >>
	<< Calculating on displaced geometry   6 (of  48) >>
	<< Calculating on displaced geometry   7 (of  48) >>
	<< Calculating on displaced geometry   8 (of  48) >>
	<< Calculating on displaced geometry   9 (of  48) >>
	<< Calculating on displaced geometry  10 (of  48) >>
	<< Calculating on displaced geometry  11 (of  48) >>
	<< Calculating on displaced geometry  12 (of  48) >>
	<< Calculating on displaced geometry  13 (of  48) >>
	<< Calculating on displaced geometry  14 (of  48) >>
	<< Calculating on displaced geometry  15 (of  48) >>
	<< Calculating on displaced geometry  16 (of  48) >>
	<< Calculating on displaced geometry  17 (of  48) >>
	<< Calculating on displaced geometry  18 (of  48) >>
	<< Calculating on displaced geometry  19 (of  48) >>
	<< Calculating on displaced geometry  20 (of  48) >>
	<< Calculating on displaced geometry  21 (of  48) >>
	<< Calculating on displaced geometry  22 (of  48) >>
	<< Calculating on displaced geometry  23 (of  48) >>
	<< Calculating on displaced geometry  24 (of  48) >>
	<< Calculating on displaced geometry  25 (of  48) >>
	<< Calculating on displaced geometry  26 (of  48) >>
	<< Calculating on displaced geometry  27 (of  48) >>
	<< Calculating on displaced geometry  28 (of  48) >>
	<< Calculating on displaced geometry  29 (of  48) >>
	<< Calculating on displaced geometry  30 (of  48) >>
	<< Calculating on displaced geometry  31 (of  48) >>
	<< Calculating on displaced geometry  32 (of  48) >>
	<< Calculating on displaced geometry  33 (of  48) >>
	<< Calculating on displaced geometry  34 (of  48) >>
	<< Calculating on displaced geometry  35 (of  48) >>
	<< Calculating on displaced geometry  36 (of  48) >>
	<< Calculating on displaced geometry  37 (of  48) >>
	<< Calculating on displaced geometry  38 (of  48) >>
	<< Calculating on displaced geometry  39 (of  48) >>
	<< Calculating on displaced geometry  40 (of  48) >>
	<< Calculating on displaced geometry  41 (of  48) >>
	<< Calculating on displaced geometry  42 (of  48) >>
	<< Calculating on displaced geometry  43 (of  48) >>
	<< Calculating on displaced geometry  44 (of  48) >>
	<< Calculating on displaced geometry  45 (of  48) >>
	<< Calculating on displaced geometry  46 (of  48) >>
	<< Calculating on displaced geometry  47 (of  48) >>
	<< Calculating on displaced geometry  48 (of  48) >>

-----------------------
VIBRATIONAL FREQUENCIES
-----------------------

Scaling factor for frequencies =  1.000000000 (already applied!)

   0:         0.00 cm**-1
   1:         0.00 cm**-1
   2:         0.00 cm**-1
   3:         0.00 cm**-1
   4:         0.00 cm**-1
   5:         0.00 cm**-1
   6:      -779.77 cm**-1 ***imaginary mode***
   7:       156.17 cm**-1
   8:       348.56 cm**-1
   9:       486.08 cm**-1
  10:       563.15 cm**-1
  11:       704.13 cm**-1
  12:       972.20 cm**-1
  13:      1010.23 cm**-1
  14:      1078.80 cm**-1
  15:      1147.37 cm**-1
  16:      1443.67 cm**-1
  17:      1528.89 cm**-1
  18:      1539.83 cm**-1
  19:      1593.96 cm**-1
  20:      2035.45 cm**-1
  21:      3138.98 cm**-1
  22:      3238.13 cm**-1
  23:      3266.74 cm**-1


------------
NORMAL MODES
------------

These modes are the cartesian displacements weighted by the diagonal matrix
M(i,i)=1/sqrt(m[i]) where m[i] is the mass of the displaced atom
Thus, these vectors are normalized but *not* orthogonal

                  0          1          2          3          4          5    
      0       0.000000   0.000000   0.000000   0.000000   0.000000   0.000000
      1       0.000000   0.000000   0.000000   0.000000   0.000000   0.000000
      2       0.000000   0.000000   0.000000   0.000000   0.000000   0.000000
      3       0.000000   0.000000   0.000000   0.000000   0.000000   0.000000
      4       0.000000   0.000000   0.000000   0.000000   0.000000   0.000000
      5       0.000000   0.000000   0.000000   0.000000   0.000000   0.000000
      6       0.000000   0.000000   0.000000   0.000000   0.000000   0.000000
      7       0.000000   0.000000   0.000000   0.000000   0.000000   0.000000
      8       0.000000   0.000000   0.000000   0.000000   0.000000   0.000000
      9       0.000000   0.000000   0.000000   0.000000   0.000000   0.000000
     10       0.000000   0.000000   0.000000   0.000000   0.000000   0.000000
     11       0.000000   0.000000   0.000000   0.000000   0.000000   0.000000
     12       0.000000   0.000000   0.000000   0.000000   0.000000   0.000000
     13       0.000000   0.000000   0.000000   0.000000   0.000000   0.000000
     14       0.000000   0.000000   0.000000   0.000000   0.000000   0.000000
     15       0.000000   0.000000   0.000000   0.000000   0.000000   0.000000
     16       0.000000   0.000000   0.000000   0.000000   0.000000   0.000000
     17       0.000000   0.000000   0.000000   0.000000   0.000000   0.000000
     18       0.000000   0.000000   0.000000   0.000000   0.000000   0.000000
     19       0.000000   0.000000   0.000000   0.000000   0.000000   0.000000
     20       0.000000   0.000000   0.000000   0.000000   0.000000   0.000000
     21       0.000000   0.000000   0.000000   0.000000   0.000000   0.000000
     22       0.000000   0.000000   0.000000   0.000000   0.000000   0.000000
     23       0.000000   0.000000   0.000000   0.000000   0.000000   0.000000
                  6          7          8          9         10         11    
      0       0.001147   0.012328  -0.128929   0.173581   0.039046  -0.036802
      1      -0.004753   0.013531  -0.187354  -0.050199  -0.030971   0.049926
      2       0.005237   0.014364  -0.131606  -0.130328  -0.029164   0.136337
      3       0.119481  -0.000879   0.133966  -0.048661  -0.148301   0.008403
      4       0.174634  -0.022071   0.017112  -0.100377   0.248560   0.111962
      5       0.031842   0.017588  -0.042643  -0.141868  -0.186206   0.003516
      6      -0.089048  -0.009079  -0.082984  -0.215632   0.088082  -0.062449
      7      -0.063642   0.021888   0.128427  -0.104364   0.017562  -0.105977
      8      -0.047925  -0.041390   0.200518   0.009146   0.059918  -0.037136
      9       0.040731  -0.002334   0.128349   0.078971  -0.060077   0.066213
     10       0.005670  -0.030703   0.024459   0.239510  -0.140528  -0.012024
     11       0.022280   0.021056  -0.071976   0.232428   0.098293  -0.075858
     12       0.052813   0.490126  -0.065021   0.329669   0.424100  -0.121205
     13      -0.015010   0.355008  -0.201830  -0.021194  -0.306145   0.039993
     14      -0.023260   0.175261  -0.167839  -0.162668  -0.444230   0.152716
     15      -0.031981  -0.382286  -0.510496   0.329076  -0.020376  -0.231435
     16       0.000515   0.272111  -0.097073  -0.071381  -0.099572   0.097640
     17       0.032750  -0.309859   0.080038  -0.272876   0.272750   0.256743
     18       0.007315  -0.013455  -0.114589   0.152680   0.003487  -0.026294
     19      -0.049334  -0.498282  -0.541062   0.014203  -0.198555  -0.066012
     20      -0.030073   0.172737  -0.358174   0.150406   0.335620  -0.045868
     21      -0.433683  -0.022636   0.156938   0.510702   0.188090   0.843378
     22      -0.850932   0.047724   0.059795   0.038068  -0.088969   0.187584
     23       0.128406   0.027022  -0.114531  -0.332952  -0.287269  -0.126100
                 12         13         14         15         16         17    
      0       0.005633  -0.185032  -0.005471  -0.109115  -0.046080  -0.053280
      1       0.067140   0.066152  -0.130941  -0.054157   0.028361  -0.013563
      2      -0.013578   0.139956   0.058509  -0.102726   0.136435   0.002639
      3       0.040254   0.044752  -0.026537   0.040315   0.009287   0.017178
      4       0.020297  -0.124213   0.104336   0.090255  -0.001458   0.000612
      5      -0.042638  -0.178640  -0.152421   0.145502  -0.009994  -0.012007
      6      -0.030662  -0.005108   0.003564  -0.009911   0.000357  -0.000881
      7      -0.072398   0.024601  -0.009938  -0.030134  -0.000558  -0.006118
      8      -0.009455   0.007823   0.023519  -0.001195   0.001773   0.001176
      9       0.034583   0.120444   0.040651   0.012016  -0.001636  -0.016665
     10      -0.002592   0.018009  -0.020047  -0.014307  -0.000166  -0.000275
     11       0.027026  -0.021704   0.026625  -0.037253   0.000412   0.006363
     12       0.050719   0.197766  -0.241650   0.346779   0.229085   0.503902
     13      -0.155465  -0.001601   0.290371   0.035729  -0.361938   0.391647
     14      -0.247896  -0.054313   0.542774  -0.181977  -0.363689   0.202713
     15      -0.136370   0.130689   0.066489   0.414422   0.238537   0.274253
     16       0.031957  -0.053717   0.015488  -0.178986   0.111183  -0.254156
     17       0.280969   0.130487  -0.486488  -0.374394  -0.548166   0.403719
     18       0.003650  -0.245651   0.012276  -0.142455   0.015456   0.005097
     19      -0.141394   0.189605   0.276778   0.208711  -0.088368   0.064997
     20      -0.048694   0.761875  -0.102284   0.456405  -0.519391  -0.449507
     21      -0.435773  -0.226699  -0.168101   0.197113  -0.025413  -0.071958
     22       0.628660  -0.191953   0.239863   0.299440   0.031716   0.071508
     23       0.434715  -0.180056   0.299157   0.204069  -0.115325  -0.168460
                 18         19         20         21         22         23    
      0      -0.016301  -0.017557  -0.026439   0.008557   0.016352  -0.087600
      1       0.055795   0.012810   0.011004  -0.005321  -0.087290  -0.025770
      2      -0.008808  -0.008316   0.020843  -0.047932   0.026907  -0.025741
      3      -0.013339  -0.100027   0.400437  -0.001075   0.000293  -0.001325
      4       0.011843  -0.045447  -0.043208   0.000842  -0.000985  -0.000843
      5      -0.017821  -0.028477  -0.181496   0.001124   0.001213  -0.001157
      6       0.002610   0.009217   0.008510  -0.000146   0.000027   0.000337
      7       0.003772   0.030993   0.018210  -0.000181   0.000260   0.000253
      8       0.001835  -0.001207   0.008372   0.000034   0.000004   0.000025
      9       0.005452   0.043354  -0.328221   0.000144  -0.000176   0.000667
     10      -0.002367   0.008261   0.003217   0.000020   0.000149   0.000050
     11       0.000944  -0.010498   0.072011   0.000203   0.000019  -0.000040
     12      -0.326461   0.210124  -0.016182   0.174330  -0.183008   0.027555
     13       0.079302   0.001272  -0.018746  -0.463021   0.478562  -0.115637
     14       0.148728  -0.110740  -0.005783   0.458233  -0.492032   0.107323
     15       0.556948   0.010190   0.005563   0.205407   0.242566   0.173977
     16      -0.184842  -0.028488   0.019640   0.507531   0.576051   0.451008
     17      -0.016966   0.091023  -0.014761   0.145290   0.179215   0.129162
     18      -0.039327  -0.003124  -0.036779  -0.468223  -0.252018   0.841358
     19      -0.709856   0.043311   0.032531   0.011465  -0.008278  -0.022662
     20       0.056590  -0.168872   0.124940  -0.050845  -0.019463   0.081112
     21       0.026292   0.322066   0.640102  -0.000195  -0.003587  -0.000226
     22      -0.024083  -0.342445  -0.043981   0.000473  -0.001737  -0.001148
     23       0.079378   0.816367   0.509138   0.001219  -0.003165   0.003060


-----------
IR SPECTRUM
-----------

 Mode   freq       eps      Int      T**2         TX        TY        TZ
       cm**-1   L/(mol*cm) km/mol    a.u.
----------------------------------------------------------------------------
  7:    156.17   0.000136    0.69  0.000272  (-0.006492  0.008291  0.012688)
  8:    348.56   0.001601    8.09  0.001433  (-0.002558 -0.026614 -0.026804)
  9:    486.08   0.009985   50.46  0.006411  ( 0.044803 -0.013262 -0.065019)
 10:    563.15   0.007550   38.15  0.004184  (-0.007688 -0.003842 -0.064107)
 11:    704.13   0.033915  171.39  0.015031  ( 0.097682  0.069870 -0.024638)
 12:    972.20   0.007675   38.78  0.002463  ( 0.002497  0.047253  0.014980)
 13:   1010.23   0.011724   59.25  0.003622  (-0.042866 -0.039485 -0.015001)
 14:   1078.80   0.008900   44.98  0.002574  (-0.012503  0.003866 -0.049022)
 15:   1147.37   0.018228   92.12  0.004958  ( 0.029989  0.051940  0.036888)
 16:   1443.67   0.002010   10.16  0.000434  ( 0.002410 -0.005331 -0.020006)
 17:   1528.89   0.003551   17.95  0.000725  ( 0.023147  0.010162  0.009263)
 18:   1539.83   0.003210   16.22  0.000651  (-0.001794 -0.025198 -0.003521)
 19:   1593.96   0.022187  112.12  0.004344  (-0.018264 -0.047357 -0.042041)
 20:   2035.45   0.052137  263.48  0.007993  ( 0.088436  0.012908 -0.002415)
 21:   3138.98   0.000043    0.22  0.000004  ( 0.002035 -0.000326  0.000147)
 22:   3238.13   0.000292    1.48  0.000028  ( 0.002780 -0.003152 -0.003236)
 23:   3266.74   0.000426    2.15  0.000041  (-0.006219 -0.001288  0.000569)

* The epsilon (eps) is given for a Dirac delta lineshape.
** The dipole moment derivative (T) already includes vibrational overlap.

The first frequency considered to be a vibration is 7
The total number of vibrations considered is 17


--------------------------
THERMOCHEMISTRY AT 298.15K
--------------------------

Temperature         ... 298.15 K
Pressure            ... 1.00 atm
Total Mass          ... 63.05 AMU

Throughout the following assumptions are being made:
  (1) The electronic state is orbitally nondegenerate
      but the spin degeneracy is treated
  (2) There are no thermally accessible electronically excited states
  (3) Hindered rotations indicated by low frequency modes are not
      treated as such but are treated as vibrations and this may
      cause some error
  (4) All equations used are the standard statistical mechanics
      equations for an ideal gas
  (5) All vibrations are strictly harmonic

freq.     156.17  E(vib)   ...       0.40 
freq.     348.56  E(vib)   ...       0.23 
freq.     486.08  E(vib)   ...       0.15 
freq.     563.15  E(vib)   ...       0.11 
freq.     704.13  E(vib)   ...       0.07 
freq.     972.20  E(vib)   ...       0.03 
freq.    1010.23  E(vib)   ...       0.02 
freq.    1078.80  E(vib)   ...       0.02 
freq.    1147.37  E(vib)   ...       0.01 
freq.    1443.67  E(vib)   ...       0.00 
freq.    1528.89  E(vib)   ...       0.00 
freq.    1539.83  E(vib)   ...       0.00 
freq.    1593.96  E(vib)   ...       0.00 
freq.    2035.45  E(vib)   ...       0.00 
freq.    3138.98  E(vib)   ...       0.00 
freq.    3238.13  E(vib)   ...       0.00 
freq.    3266.74  E(vib)   ...       0.00 

------------
INNER ENERGY
------------

The inner energy is: U= E(el) + E(ZPE) + E(vib) + E(rot) + E(trans)
    E(el)   - is the total energy from the electronic structure calculation
              = E(kin-el) + E(nuc-el) + E(el-el) + E(nuc-nuc)
    E(ZPE)  - the the zero temperature vibrational energy from the frequency calculation
    E(vib)  - the the finite temperature correction to E(ZPE) due to population
              of excited vibrational states
    E(rot)  - is the rotational thermal energy
    E(trans)- is the translational thermal energy

Summary of contributions to the inner energy U:
Electronic energy                ...   -252.83404574 Eh
Zero point energy                ...      0.05525089 Eh      34.67 kcal/mol
Thermal vibrational correction   ...      0.00166544 Eh       1.05 kcal/mol
Thermal rotational correction    ...      0.00141627 Eh       0.89 kcal/mol
Thermal translational correction ...      0.00141627 Eh       0.89 kcal/mol
-----------------------------------------------------------------------
Total thermal energy                   -252.77429687 Eh


Summary of corrections to the electronic energy:
(perhaps to be used in another calculation)
Total thermal correction                  0.00449799 Eh       2.82 kcal/mol
Non-thermal (ZPE) correction              0.05525089 Eh      34.67 kcal/mol
-----------------------------------------------------------------------
Total correction                          0.05974887 Eh      37.49 kcal/mol


--------
ENTHALPY
--------

The enthalpy is H = U + kB*T
                kB is Boltzmann's constant
Total free energy                 ...   -252.77429687 Eh 
Thermal Enthalpy correction       ...      0.00094421 Eh       0.59 kcal/mol
-----------------------------------------------------------------------
Total Enthalpy                    ...   -252.77335266 Eh


Note: Only C1 symmetry has been detected, increase convergence thresholds 
      if your molecule has a higher symmetry. Symmetry factor of 1.0 is   
      used for the rotational entropy correction. 
 

Note: Rotational entropy computed according to Herzberg 
Infrared and Raman Spectra, Chapter V,1, Van Nostrand Reinhold, 1945 
Point Group:  C1, Symmetry Number:   1  
Rotational constants in cm-1:     0.319721     0.277995     0.158418 

Vibrational entropy computed according to the QRRHO of S. Grimme
Chem.Eur.J. 2012 18 9955


-------
ENTROPY
-------

The entropy contributions are T*S = T*(S(el)+S(vib)+S(rot)+S(trans))
     S(el)   - electronic entropy
     S(vib)  - vibrational entropy
     S(rot)  - rotational entropy
     S(trans)- translational entropy
The entropies will be listed as multiplied by the temperature to get
units of energy

Electronic entropy                ...      0.00065446 Eh      0.41 kcal/mol
Vibrational entropy               ...      0.00266928 Eh      1.67 kcal/mol
Rotational entropy                ...      0.01152332 Eh      7.23 kcal/mol
Translational entropy             ...      0.01821802 Eh     11.43 kcal/mol
-----------------------------------------------------------------------
Final entropy term                ...      0.03306507 Eh     20.75 kcal/mol

In case the symmetry of your molecule has not been determined correctly
or in case you have a reason to use a different symmetry number we print 
out the resulting rotational entropy values for sn=1,12 :
 --------------------------------------------------------
|  sn= 1 | S(rot)=       0.01152332 Eh      7.23 kcal/mol|
|  sn= 2 | S(rot)=       0.01086886 Eh      6.82 kcal/mol|
|  sn= 3 | S(rot)=       0.01048603 Eh      6.58 kcal/mol|
|  sn= 4 | S(rot)=       0.01021441 Eh      6.41 kcal/mol|
|  sn= 5 | S(rot)=       0.01000372 Eh      6.28 kcal/mol|
|  sn= 6 | S(rot)=       0.00983157 Eh      6.17 kcal/mol|
|  sn= 7 | S(rot)=       0.00968603 Eh      6.08 kcal/mol|
|  sn= 8 | S(rot)=       0.00955995 Eh      6.00 kcal/mol|
|  sn= 9 | S(rot)=       0.00944874 Eh      5.93 kcal/mol|
|  sn=10 | S(rot)=       0.00934926 Eh      5.87 kcal/mol|
|  sn=11 | S(rot)=       0.00925927 Eh      5.81 kcal/mol|
|  sn=12 | S(rot)=       0.00917712 Eh      5.76 kcal/mol|
 --------------------------------------------------------


-------------------
GIBBS FREE ENERGY
-------------------

The Gibbs free energy is G = H - T*S

Total enthalpy                    ...   -252.77335266 Eh 
Total entropy correction          ...     -0.03306507 Eh    -20.75 kcal/mol
-----------------------------------------------------------------------
Final Gibbs free energy         ...   -252.80641773 Eh

For completeness - the Gibbs free energy minus the electronic energy
G-E(el)                           ...      0.02762801 Eh     17.34 kcal/mol



Timings for individual modules:

Sum of individual times         ...     1655.121 sec (=  27.585 min)
GTO integral calculation        ...       14.610 sec (=   0.243 min)   0.9 %
SCF iterations                  ...      318.298 sec (=   5.305 min)  19.2 %
MP2 module                      ...      468.787 sec (=   7.813 min)  28.3 %
Geometry relaxation             ...        1.449 sec (=   0.024 min)   0.1 %
Numerical frequency calculation ...      851.977 sec (=  14.200 min)  51.5 %
                             ****ORCA TERMINATED NORMALLY****
TOTAL RUN TIME: 0 days 0 hours 27 minutes 32 seconds 636 msec
